                         Program Version 6.0.1  -  RELEASE   -
|  1> ! wB97X-3c OPT FREQ TightSCF
|  2> %pal
|  3>   nprocs 40
|  4> end
|  5> * xyz 0 1
|  6> C     -5.211328    -0.190458     0.642062
|  7> C     -4.412702    -0.274707    -0.658641
|  8> C     -2.962548    -0.734003    -0.439748
|  9> C     -2.095949     0.349202     0.226122
| 10> C     -0.639653    -0.101491     0.428705
| 11> C      0.178700    -0.058351    -0.873716
| 12> C      1.626636    -0.534980    -0.675989
| 13> C      2.484437     0.472042     0.093101
| 14> O      3.837537     0.028350     0.102610
| 15> C      4.860596     0.743128     0.731798
| 16> O      4.621822     1.840944     1.304740
| 17> C      6.257583     0.224888     0.681844
| 18> H     -5.158302    -1.152534     1.194626
| 19> H     -6.275511     0.022712     0.407422
| 20> H     -4.831035     0.628581     1.286473
| 21> H     -4.429231     0.711591    -1.171366
| 22> H     -4.915468    -1.007772    -1.326282
| 23> H     -2.950874    -1.661196     0.174223
| 24> H     -2.539146    -0.984712    -1.434443
| 25> H     -2.516121     0.582157     1.227269
| 26> H     -2.122133     1.284012    -0.375768
| 27> H     -0.177453     0.585680     1.168339
| 28> H     -0.617644    -1.125847     0.861151
| 29> H      0.175816     0.972584    -1.290730
| 30> H     -0.291101    -0.725527    -1.625851
| 31> H      2.082011    -0.687411    -1.678984
| 32> H      1.637299    -1.514924    -0.150621
| 33> H      2.124772     0.559241     1.140181
| 34> H      2.427590     1.467972    -0.398451
| 35> H      6.249223    -0.872856     0.516413
| 36> H      6.804058     0.714588    -0.150680
| 37> H      6.778120     0.439095     1.639066
| 38> *
| 39>
| 40>                          ****END OF INPUT****
 Total Charge           Charge          ....    0
 Multiplicity           Mult            ....    1
 Number of Electrons    NEL             ....   72
Dispersion correction           -0.030079410
FINAL SINGLE POINT ENERGY      -101.179766790281
Dispersion correction             ... done (  0.1 sec)
Dispersion correction           -0.030556163
FINAL SINGLE POINT ENERGY      -101.200063040207
Dispersion correction             ... done (  0.1 sec)
Dispersion correction           -0.030695346
FINAL SINGLE POINT ENERGY      -101.201888086895
Dispersion correction             ... done (  0.1 sec)
FINAL SINGLE POINT ENERGY      -101.202010063816
FINAL SINGLE POINT ENERGY      -101.202281965334
FINAL SINGLE POINT ENERGY      -101.202349202369
FINAL SINGLE POINT ENERGY      -101.202365904159
FINAL SINGLE POINT ENERGY      -101.202385703500
FINAL SINGLE POINT ENERGY      -101.202397971996
FINAL SINGLE POINT ENERGY      -101.202425268461
FINAL SINGLE POINT ENERGY      -101.202456637930
FINAL SINGLE POINT ENERGY      -101.202494730529
FINAL SINGLE POINT ENERGY      -101.202529331780
FINAL SINGLE POINT ENERGY      -101.202553033966
FINAL SINGLE POINT ENERGY      -101.202566213321
FINAL SINGLE POINT ENERGY      -101.202570912420
Dispersion correction             ... done (  0.1 sec)
Dispersion correction           -0.030702547
FINAL SINGLE POINT ENERGY      -101.202572575540
Dispersion correction             ... done (  0.1 sec)
Dispersion correction           -0.030703227
FINAL SINGLE POINT ENERGY      -101.202573209693
Dispersion correction             ... done (  0.1 sec)
                    ***********************HURRAY********************

CARTESIAN COORDINATES (ANGSTROEM)
---------------------------------
  C     -5.125565   -0.230717    0.655338
  C     -4.355299   -0.282559   -0.651531
  C     -2.891291   -0.669868   -0.500347
  C     -2.055324    0.348744    0.255838
  C     -0.592519   -0.038443    0.422519
  C      0.199093   -0.055638   -0.875334
  C      1.649099   -0.487069   -0.718945
  C      2.468977    0.479107    0.096480
  O      3.823622    0.021414    0.083210
  C      4.704212    0.748685    0.774157
  O      4.406556    1.741279    1.381624
  C      6.080247    0.169601    0.690494
  H     -5.059687   -1.182480    1.184598
  H     -6.180607   -0.023235    0.479291
  H     -4.749504    0.544678    1.321217
  H     -4.420277    0.686722   -1.153281
  H     -4.838372   -0.999414   -1.318699
  H     -2.825828   -1.636558    0.009320
  H     -2.471964   -0.822579   -1.496204
  H     -2.483131    0.502284    1.247749
  H     -2.117047    1.315660   -0.253518
  H     -0.131005    0.660911    1.121945
  H     -0.531300   -1.024213    0.894272
  H      0.161042    0.937363   -1.333546
  H     -0.276153   -0.732821   -1.585461
  H      2.109892   -0.580553   -1.703364
  H      1.696695   -1.475169   -0.256421
  H      2.135900    0.540274    1.130383
  H      2.433912    1.485361   -0.321908
  H      6.077929   -0.838061    1.099526
  H      6.388359    0.101568   -0.350047
  H      6.769338    0.795726    1.245519

 Multiplicity           Mult            ....    1
 Number of Electrons    NEL             ....   72
 Basis Dimension        Dim             ....  256

ORBITAL ENERGIES
----------------

  NO   OCC          E(Eh)            E(eV)
   0   2.0000      -1.239425       -33.7265
   1   2.0000      -1.140919       -31.0460
   2   2.0000      -0.965403       -26.2699
   3   2.0000      -0.940719       -25.5983
   4   2.0000      -0.908699       -24.7270
   5   2.0000      -0.881426       -23.9848
   6   2.0000      -0.835784       -22.7428
   7   2.0000      -0.798795       -21.7363
   8   2.0000      -0.746930       -20.3250
   9   2.0000      -0.711548       -19.3622
  10   2.0000      -0.695427       -18.9235
  11   2.0000      -0.689260       -18.7557
  12   2.0000      -0.625676       -17.0255
  13   2.0000      -0.612994       -16.6804
  14   2.0000      -0.597075       -16.2472
  15   2.0000      -0.583806       -15.8862
  16   2.0000      -0.577024       -15.7016
  17   2.0000      -0.569642       -15.5007
  18   2.0000      -0.562659       -15.3107
  19   2.0000      -0.531096       -14.4519
  20   2.0000      -0.529830       -14.4174
  21   2.0000      -0.524282       -14.2664
  22   2.0000      -0.515039       -14.0149
  23   2.0000      -0.500425       -13.6173
  24   2.0000      -0.490257       -13.3406
  25   2.0000      -0.477015       -12.9802
  26   2.0000      -0.473483       -12.8841
  27   2.0000      -0.456567       -12.4238
  28   2.0000      -0.452123       -12.3029
  29   2.0000      -0.445471       -12.1219
  30   2.0000      -0.435502       -11.8506
  31   2.0000      -0.426539       -11.6067
  32   2.0000      -0.420668       -11.4470
  33   2.0000      -0.415534       -11.3073
  34   2.0000      -0.406196       -11.0531
  35   2.0000      -0.386514       -10.5176
  36   0.0000       0.087190         2.3726
  37   0.0000       0.091537         2.4909
  38   0.0000       0.093331         2.5397
  39   0.0000       0.095000         2.5851
  40   0.0000       0.097338         2.6487

MULLIKEN ATOMIC CHARGES
-----------------------
   0 C :   -0.065370
   1 C :   -0.064028
   2 C :   -0.055598
   3 C :   -0.049379
   4 C :   -0.057319
   5 C :   -0.055851
   6 C :   -0.027412
   7 C :    0.101350
   8 O :   -0.271246
   9 C :    0.237790
  10 O :   -0.328812
  11 C :   -0.065651
  12 H :    0.025809
  13 H :    0.031378
  14 H :    0.022389
  15 H :    0.026189
  16 H :    0.029302
  17 H :    0.022655
  18 H :    0.028248
  19 H :    0.031069
  20 H :    0.024246
  21 H :    0.032291
  22 H :    0.025703
  23 H :    0.026617
  24 H :    0.034570
  25 H :    0.039609
  26 H :    0.035393
  27 H :    0.051919
  28 H :    0.046574
  29 H :    0.055970
  30 H :    0.055575
  31 H :    0.056017
Sum of atomic charges:   -0.0000000

LOEWDIN ATOMIC CHARGES
----------------------
   0 C :   -0.116185
   1 C :   -0.091875
   2 C :   -0.085788
   3 C :   -0.081822
   4 C :   -0.082852
   5 C :   -0.080866
   6 C :   -0.079551
   7 C :   -0.022407
   8 O :   -0.012274
   9 C :   -0.056296
  10 O :   -0.145736
  11 C :   -0.084601
  12 H :    0.042046
  13 H :    0.044529
  14 H :    0.038732
  15 H :    0.042770
  16 H :    0.045130
  17 H :    0.041980
  18 H :    0.040825
  19 H :    0.043443
  20 H :    0.042996
  21 H :    0.043243
  22 H :    0.043366
  23 H :    0.043890
  24 H :    0.044613
  25 H :    0.050925
  26 H :    0.047779
  27 H :    0.048530
  28 H :    0.051571
  29 H :    0.061328
  30 H :    0.061098
  31 H :    0.061463

  Mayer bond orders larger than 0.100000
B(  0-C ,  1-C ) :   0.9893 B(  0-C , 12-H ) :   0.9940 B(  0-C , 13-H ) :   0.9980
B(  0-C , 14-H ) :   0.9960 B(  1-C ,  2-C ) :   1.0034 B(  1-C , 15-H ) :   0.9954
B(  1-C , 16-H ) :   1.0000 B(  2-C ,  3-C ) :   0.9628 B(  2-C , 17-H ) :   0.9962
B(  2-C , 18-H ) :   0.9987 B(  3-C ,  4-C ) :   1.0172 B(  3-C , 19-H ) :   0.9975
B(  3-C , 20-H ) :   0.9952 B(  4-C ,  5-C ) :   0.9597 B(  4-C , 21-H ) :   0.9961
B(  4-C , 22-H ) :   0.9947 B(  5-C ,  6-C ) :   1.0068 B(  5-C , 23-H ) :   0.9946
B(  5-C , 24-H ) :   0.9966 B(  6-C ,  7-C ) :   0.9776 B(  6-C , 25-H ) :   0.9950
B(  6-C , 26-H ) :   0.9916 B(  7-C ,  8-O ) :   0.8952 B(  7-C , 27-H ) :   0.9945
B(  7-C , 28-H ) :   0.9987 B(  8-O ,  9-C ) :   1.1531 B(  9-C , 10-O ) :   1.9260
B(  9-C , 11-C ) :   1.0421 B( 11-C , 29-H ) :   0.9731 B( 11-C , 30-H ) :   0.9737
B( 11-C , 31-H ) :   0.9878

Dispersion correction           -0.030703845
FINAL SINGLE POINT ENERGY      -101.202573425797

DIPOLE MOMENT
-------------

Method             : SCF
Type of density    : Electron Density
Multiplicity       :   1
Irrep              :   0
Energy             :  -101.1718695810787239 Eh
Relativity type    :
Basis              : AO
                                X                 Y                 Z
Electronic contribution:     19.706523078       3.467060950       1.719157169
Nuclear contribution   :    -19.929286153      -4.160668300      -2.230073916
                        -----------------------------------------
Total Dipole Moment    :     -0.222763075      -0.693607350      -0.510916746
                        -----------------------------------------
Magnitude (a.u.)       :      0.889803611
Magnitude (Debye)      :      2.261701039

VIBRATIONAL FREQUENCIES
-----------------------

Scaling factor for frequencies =  1.000000000  (already applied!)

     0:       0.00 cm**-1
     1:       0.00 cm**-1
     2:       0.00 cm**-1
     3:       0.00 cm**-1
     4:       0.00 cm**-1
     5:       0.00 cm**-1
     6:      16.11 cm**-1
     7:      25.92 cm**-1
     8:      39.07 cm**-1
     9:      44.19 cm**-1
    10:      57.94 cm**-1
    11:      77.61 cm**-1
    12:     109.30 cm**-1
    13:     126.85 cm**-1
    14:     161.87 cm**-1
    15:     184.74 cm**-1
    16:     218.49 cm**-1
    17:     236.69 cm**-1
    18:     266.64 cm**-1
    19:     289.59 cm**-1
    20:     346.61 cm**-1
    21:     356.17 cm**-1
    22:     426.30 cm**-1
    23:     496.46 cm**-1
    24:     571.77 cm**-1
    25:     625.71 cm**-1
    26:     665.15 cm**-1
    27:     744.26 cm**-1
    28:     757.75 cm**-1
    29:     796.69 cm**-1
    30:     819.55 cm**-1
    31:     895.68 cm**-1
    32:     916.27 cm**-1
    33:     945.56 cm**-1
    34:     954.59 cm**-1
    35:     992.79 cm**-1
    36:    1001.71 cm**-1
    37:    1028.59 cm**-1
    38:    1075.35 cm**-1
    39:    1080.57 cm**-1
    40:    1096.88 cm**-1
    41:    1113.50 cm**-1
    42:    1115.99 cm**-1
    43:    1133.86 cm**-1
    44:    1144.29 cm**-1
    45:    1170.37 cm**-1
    46:    1206.42 cm**-1
    47:    1240.96 cm**-1
    48:    1276.49 cm**-1
    49:    1288.88 cm**-1
    50:    1321.48 cm**-1
    51:    1334.30 cm**-1
    52:    1338.82 cm**-1
    53:    1348.34 cm**-1
    54:    1363.69 cm**-1
    55:    1373.95 cm**-1
    56:    1386.91 cm**-1
    57:    1394.67 cm**-1
    58:    1415.43 cm**-1
    59:    1440.96 cm**-1
    60:    1450.54 cm**-1
    61:    1455.93 cm**-1
    62:    1459.51 cm**-1
    63:    1482.24 cm**-1
    64:    1503.06 cm**-1
    65:    1509.34 cm**-1
    66:    1512.54 cm**-1
    67:    1515.87 cm**-1
    68:    1519.36 cm**-1
    69:    1525.50 cm**-1
    70:    1527.41 cm**-1
    71:    1531.05 cm**-1
    72:    1533.35 cm**-1
    73:    1537.19 cm**-1
    74:    1548.86 cm**-1
    75:    1874.48 cm**-1
    76:    3079.30 cm**-1
    77:    3083.01 cm**-1
    78:    3085.89 cm**-1
    79:    3090.26 cm**-1
    80:    3090.78 cm**-1
    81:    3100.90 cm**-1
    82:    3106.13 cm**-1
    83:    3127.38 cm**-1
    84:    3133.26 cm**-1
    85:    3136.95 cm**-1
    86:    3139.10 cm**-1
    87:    3139.77 cm**-1
    88:    3153.32 cm**-1
    89:    3158.82 cm**-1
    90:    3162.90 cm**-1
    91:    3185.70 cm**-1
    92:    3196.57 cm**-1
    93:    3198.42 cm**-1
    94:    3231.13 cm**-1
    95:    3265.48 cm**-1

IR SPECTRUM
-----------

 Mode   freq       eps      Int      T**2         TX        TY        TZ
       cm**-1   L/(mol*cm) km/mol    a.u.
----------------------------------------------------------------------------
  6:     16.11   0.000097    0.49  0.001881  (-0.001103 -0.025617  0.034980)
  7:     25.92   0.000104    0.52  0.001246  ( 0.015541  0.017138 -0.026665)
  8:     39.07   0.000227    1.15  0.001812  (-0.022363 -0.021179  0.029390)
  9:     44.19   0.000065    0.33  0.000462  (-0.009298  0.008930 -0.017213)
 10:     57.94   0.000001    0.01  0.000008  (-0.002028 -0.001954  0.000275)
 11:     77.61   0.000047    0.24  0.000191  ( 0.002428 -0.002890  0.013278)
 12:    109.30   0.000164    0.83  0.000469  (-0.017696 -0.004118 -0.011791)
 13:    126.85   0.000003    0.02  0.000008  (-0.000130 -0.000142  0.002861)
 14:    161.87   0.000458    2.32  0.000883  (-0.020800 -0.020460 -0.005672)
 15:    184.74   0.000992    5.01  0.001675  (-0.005478 -0.019993  0.035288)
 16:    218.49   0.000069    0.35  0.000098  ( 0.002811 -0.000091  0.009492)
 17:    236.69   0.000051    0.26  0.000068  (-0.002626  0.006340  0.004530)
 18:    266.64   0.000099    0.50  0.000115  (-0.001783 -0.010178  0.002946)
 19:    289.59   0.000039    0.20  0.000042  ( 0.001232  0.004555  0.004416)
 20:    346.61   0.002361   11.93  0.002126  (-0.040790 -0.013453 -0.016756)
 21:    356.17   0.000147    0.74  0.000129  (-0.001833 -0.007053 -0.008710)
 22:    426.30   0.000714    3.61  0.000523  (-0.022039  0.005853 -0.001712)
 23:    496.46   0.000103    0.52  0.000065  ( 0.007799 -0.001989 -0.000512)
 24:    571.77   0.000021    0.11  0.000012  (-0.001748  0.000225 -0.002922)
 25:    625.71   0.001179    5.96  0.000588  (-0.003421 -0.013476  0.019862)
 26:    665.15   0.001829    9.24  0.000858  (-0.029037  0.003583 -0.001496)
 27:    744.26   0.001452    7.34  0.000609  ( 0.016711  0.017174 -0.005879)
 28:    757.75   0.000092    0.47  0.000038  ( 0.003630 -0.001645 -0.004701)
 29:    796.69   0.000553    2.79  0.000217  ( 0.007762  0.012216  0.002672)
 30:    819.55   0.000710    3.59  0.000271  (-0.001211 -0.009605 -0.013296)
 31:    895.68   0.000056    0.28  0.000019  (-0.002822  0.002378 -0.002414)
 32:    916.27   0.000236    1.19  0.000080  (-0.006622 -0.004519 -0.003992)
 33:    945.56   0.000324    1.64  0.000107  ( 0.008879  0.003001  0.004384)
 34:    954.59   0.002331   11.78  0.000762  (-0.006910  0.023664  0.012422)
 35:    992.79   0.000119    0.60  0.000037  ( 0.000648 -0.002355  0.005611)
 36:   1001.71   0.000789    3.99  0.000246  ( 0.003234 -0.010086 -0.011560)
 37:   1028.59   0.000048    0.24  0.000015  ( 0.003439  0.000276  0.001619)
 38:   1075.35   0.000079    0.40  0.000023  ( 0.000499 -0.003578  0.003150)
 39:   1080.57   0.000394    1.99  0.000114  (-0.004952  0.006703  0.006659)
 40:   1096.88   0.002077   10.50  0.000591  ( 0.003596  0.013596 -0.019828)
 41:   1113.50   0.014323   72.38  0.004014  (-0.062341 -0.001421 -0.011206)
 42:   1115.99   0.005788   29.25  0.001619  (-0.038721 -0.002292 -0.010676)
 43:   1133.86   0.003028   15.30  0.000833  ( 0.026849  0.006020  0.008736)
 44:   1144.29   0.001198    6.05  0.000327  (-0.017992  0.000039 -0.001702)
 45:   1170.37   0.000089    0.45  0.000024  (-0.001713 -0.000804 -0.004497)
 46:   1206.42   0.000203    1.03  0.000053  (-0.001155  0.004199 -0.005797)
 47:   1240.96   0.000218    1.10  0.000055  ( 0.007211 -0.000149 -0.001694)
 48:   1276.49   0.000661    3.34  0.000162  ( 0.008942  0.000500  0.009028)
 49:   1288.88   0.001231    6.22  0.000298  ( 0.014336  0.008732  0.004043)
 50:   1321.48   0.000178    0.90  0.000042  (-0.005257 -0.003786  0.000240)
 51:   1334.30   0.092222  466.05  0.021569  (-0.130091 -0.041636 -0.053959)
 52:   1338.82   0.000040    0.20  0.000009  ( 0.001668 -0.001701 -0.001880)
 53:   1348.34   0.000317    1.60  0.000073  ( 0.008491  0.000882  0.000752)
 54:   1363.69   0.001196    6.05  0.000274  ( 0.014126  0.001791  0.008426)
 55:   1373.95   0.000526    2.66  0.000120  ( 0.010049  0.000783  0.004233)
 56:   1386.91   0.000021    0.10  0.000005  (-0.000729 -0.001543 -0.001317)
 57:   1394.67   0.000259    1.31  0.000058  (-0.007519  0.000625 -0.000996)
 58:   1415.43   0.000093    0.47  0.000021  ( 0.004172  0.000888  0.001518)
 59:   1440.96   0.028845  145.77  0.006247  ( 0.075926  0.005600  0.021228)
 60:   1450.54   0.001673    8.45  0.000360  (-0.011449 -0.001125  0.015084)
 61:   1455.93   0.000189    0.96  0.000041  (-0.005751  0.002711  0.000321)
 62:   1459.51   0.000771    3.89  0.000165  (-0.010946 -0.000974  0.006633)
 63:   1482.24   0.004848   24.50  0.001021  ( 0.029851  0.006187  0.009554)
 64:   1503.06   0.003759   18.99  0.000780  (-0.013520  0.021579  0.011483)
 65:   1509.34   0.002482   12.54  0.000513  (-0.005264 -0.012502  0.018144)
 66:   1512.54   0.000118    0.59  0.000024  (-0.001637 -0.004640 -0.000232)
 67:   1515.87   0.000130    0.66  0.000027  ( 0.002309 -0.004124  0.002087)
 68:   1519.36   0.000478    2.41  0.000098  ( 0.003379 -0.006494  0.006674)
 69:   1525.50   0.001690    8.54  0.000346  (-0.014958  0.007961 -0.007660)
 70:   1527.41   0.000354    1.79  0.000072  (-0.005637  0.001479  0.006198)
 71:   1531.05   0.003062   15.48  0.000624  ( 0.003964  0.018963  0.015775)
 72:   1533.35   0.000597    3.02  0.000121  ( 0.002473 -0.008934  0.005962)
 73:   1537.19   0.002548   12.88  0.000517  (-0.015096  0.015819 -0.006263)
 74:   1548.86   0.001514    7.65  0.000305  ( 0.002934 -0.014923 -0.008582)
 75:   1874.48   0.062202  314.34  0.010355  (-0.000286  0.084943  0.056036)
 76:   3079.30   0.000353    1.79  0.000036  (-0.001582  0.005348  0.002172)
 77:   3083.01   0.002188   11.06  0.000222  ( 0.007574 -0.002874  0.012485)
 78:   3085.89   0.009125   46.12  0.000923  ( 0.012893 -0.026961 -0.005448)
 79:   3090.26   0.013291   67.17  0.001342  ( 0.016656 -0.016492  0.028156)
 80:   3090.78   0.002133   10.78  0.000215  (-0.005168 -0.000352 -0.013730)
 81:   3100.90   0.004998   25.26  0.000503  ( 0.017465 -0.000770 -0.014049)
 82:   3106.13   0.003204   16.19  0.000322  (-0.009400  0.013697  0.006778)
 83:   3127.38   0.002796   14.13  0.000279  (-0.014205  0.008750  0.000826)
 84:   3133.26   0.000285    1.44  0.000028  (-0.000336  0.003781  0.003739)
 85:   3136.95   0.000458    2.32  0.000046  ( 0.006060 -0.002895 -0.000689)
 86:   3139.10   0.004805   24.28  0.000478  ( 0.004599  0.019904  0.007766)
 87:   3139.77   0.000233    1.18  0.000023  (-0.003347 -0.002318 -0.002565)
 88:   3153.32   0.011202   56.61  0.001109  ( 0.014288  0.022243 -0.020241)
 89:   3158.82   0.006115   30.90  0.000604  (-0.003939 -0.001806  0.024193)
 90:   3162.90   0.007108   35.92  0.000701  (-0.006475 -0.023192 -0.011023)
 91:   3185.70   0.005026   25.40  0.000492  (-0.012458  0.017443 -0.005733)
 92:   3196.57   0.005066   25.60  0.000495  ( 0.013505  0.014884  0.009520)
 93:   3198.42   0.003883   19.62  0.000379  (-0.005497 -0.007633  0.017039)
 94:   3231.13   0.000077    0.39  0.000007  ( 0.000796  0.001360 -0.002226)
 95:   3265.48   0.000248    1.25  0.000024  (-0.004657 -0.000494 -0.001313)

--------------------------
THERMOCHEMISTRY AT 298.15K
--------------------------

Temperature         ...   298.15 K
Pressure            ...     1.00 atm
Total Mass          ...   172.27 AMU
Quasi RRHO          ...     True
Cut-Off Frequency   ...     1.00 cm^-1

Throughout the following assumptions are being made:
  (1) The electronic state is orbitally nondegenerate
  (2) There are no thermally accessible electronically excited states
  (3) Hindered rotations indicated by low frequency modes are not
      treated as such but are treated as vibrations and this may
      cause some error
  (4) All equations used are the standard statistical mechanics
      equations for an ideal gas
  (5) All vibrations are strictly harmonic

freq.      16.11  E(vib)   ...       0.57
freq.      25.92  E(vib)   ...       0.56
freq.      39.07  E(vib)   ...       0.54
freq.      44.19  E(vib)   ...       0.53
freq.      57.94  E(vib)   ...       0.51
freq.      77.61  E(vib)   ...       0.49
freq.     109.30  E(vib)   ...       0.45
freq.     126.85  E(vib)   ...       0.43
freq.     161.87  E(vib)   ...       0.39
freq.     184.74  E(vib)   ...       0.37
freq.     218.49  E(vib)   ...       0.33
freq.     236.69  E(vib)   ...       0.32
freq.     266.64  E(vib)   ...       0.29
freq.     289.59  E(vib)   ...       0.27
freq.     346.61  E(vib)   ...       0.23
freq.     356.17  E(vib)   ...       0.22
freq.     426.30  E(vib)   ...       0.18
freq.     496.46  E(vib)   ...       0.14
freq.     571.77  E(vib)   ...       0.11
freq.     625.71  E(vib)   ...       0.09
freq.     665.15  E(vib)   ...       0.08
freq.     744.26  E(vib)   ...       0.06
freq.     757.75  E(vib)   ...       0.06
freq.     796.69  E(vib)   ...       0.05
freq.     819.55  E(vib)   ...       0.05
freq.     895.68  E(vib)   ...       0.03
freq.     916.27  E(vib)   ...       0.03
freq.     945.56  E(vib)   ...       0.03
freq.     954.59  E(vib)   ...       0.03
freq.     992.79  E(vib)   ...       0.02
freq.    1001.71  E(vib)   ...       0.02
freq.    1028.59  E(vib)   ...       0.02
freq.    1075.35  E(vib)   ...       0.02
freq.    1080.57  E(vib)   ...       0.02
freq.    1096.88  E(vib)   ...       0.02
freq.    1113.50  E(vib)   ...       0.01
freq.    1115.99  E(vib)   ...       0.01
freq.    1133.86  E(vib)   ...       0.01
freq.    1144.29  E(vib)   ...       0.01
freq.    1170.37  E(vib)   ...       0.01
freq.    1206.42  E(vib)   ...       0.01
freq.    1240.96  E(vib)   ...       0.01
freq.    1276.49  E(vib)   ...       0.01
freq.    1288.88  E(vib)   ...       0.01
freq.    1321.48  E(vib)   ...       0.01
freq.    1334.30  E(vib)   ...       0.01
freq.    1338.82  E(vib)   ...       0.01
freq.    1348.34  E(vib)   ...       0.01
freq.    1363.69  E(vib)   ...       0.01
freq.    1373.95  E(vib)   ...       0.01
freq.    1386.91  E(vib)   ...       0.00
freq.    1394.67  E(vib)   ...       0.00
freq.    1415.43  E(vib)   ...       0.00
freq.    1440.96  E(vib)   ...       0.00
freq.    1450.54  E(vib)   ...       0.00
freq.    1455.93  E(vib)   ...       0.00
freq.    1459.51  E(vib)   ...       0.00
freq.    1482.24  E(vib)   ...       0.00
freq.    1503.06  E(vib)   ...       0.00
freq.    1509.34  E(vib)   ...       0.00
freq.    1512.54  E(vib)   ...       0.00
freq.    1515.87  E(vib)   ...       0.00
freq.    1519.36  E(vib)   ...       0.00
freq.    1525.50  E(vib)   ...       0.00
freq.    1527.41  E(vib)   ...       0.00
freq.    1531.05  E(vib)   ...       0.00
freq.    1533.35  E(vib)   ...       0.00
freq.    1537.19  E(vib)   ...       0.00
freq.    1548.86  E(vib)   ...       0.00
freq.    1874.48  E(vib)   ...       0.00
freq.    3079.30  E(vib)   ...       0.00
freq.    3083.01  E(vib)   ...       0.00
freq.    3085.89  E(vib)   ...       0.00
freq.    3090.26  E(vib)   ...       0.00
freq.    3090.78  E(vib)   ...       0.00
freq.    3100.90  E(vib)   ...       0.00
freq.    3106.13  E(vib)   ...       0.00
freq.    3127.38  E(vib)   ...       0.00
freq.    3133.26  E(vib)   ...       0.00
freq.    3136.95  E(vib)   ...       0.00
freq.    3139.10  E(vib)   ...       0.00
freq.    3139.77  E(vib)   ...       0.00
freq.    3153.32  E(vib)   ...       0.00
freq.    3158.82  E(vib)   ...       0.00
freq.    3162.90  E(vib)   ...       0.00
freq.    3185.70  E(vib)   ...       0.00
freq.    3196.57  E(vib)   ...       0.00
freq.    3198.42  E(vib)   ...       0.00
freq.    3231.13  E(vib)   ...       0.00
freq.    3265.48  E(vib)   ...       0.00

------------
INNER ENERGY
------------

The inner energy is: U= E(el) + E(ZPE) + E(vib) + E(rot) + E(trans)
    E(el)   - is the total energy from the electronic structure calculation
              = E(kin-el) + E(nuc-el) + E(el-el) + E(nuc-nuc)
    E(ZPE)  - the the zero temperature vibrational energy from the frequency calculation
    E(vib)  - the the finite temperature correction to E(ZPE) due to population
              of excited vibrational states
    E(rot)  - is the rotational thermal energy
    E(trans)- is the translational thermal energy

Summary of contributions to the inner energy U:
Electronic energy                ...   -101.20257343 Eh
Zero point energy                ...      0.29664028 Eh     186.14 kcal/mol
Thermal vibrational correction   ...      0.01236431 Eh       7.76 kcal/mol
Thermal rotational correction    ...      0.00141627 Eh       0.89 kcal/mol
Thermal translational correction ...      0.00141627 Eh       0.89 kcal/mol
-----------------------------------------------------------------------
Total thermal energy                   -100.89073630 Eh

Summary of corrections to the electronic energy:
(perhaps to be used in another calculation)
Total thermal correction                  0.01519685 Eh       9.54 kcal/mol
Non-thermal (ZPE) correction              0.29664028 Eh     186.14 kcal/mol
-----------------------------------------------------------------------
Total correction                          0.31183713 Eh     195.68 kcal/mol

--------
ENTHALPY
--------

The enthalpy is H = U + kB*T
                kB is Boltzmann's constant
Total thermal energy              ...   -100.89073630 Eh
Thermal Enthalpy correction       ...      0.00094421 Eh       0.59 kcal/mol
-----------------------------------------------------------------------
Total Enthalpy                    ...   -100.88979209 Eh

Note: Only C1 symmetry has been detected, increase convergence thresholds
      if your molecule has a higher symmetry. Symmetry factor of 1.0 is
      used for the rotational entropy correction.

Note: Rotational entropy computed according to Herzberg
Infrared and Raman Spectra, Chapter V,1, Van Nostrand Reinhold, 1945
Point Group:  C1, Symmetry Number:   1
Rotational constants in cm-1:     0.117844     0.007217     0.006978

                             ****ORCA TERMINATED NORMALLY****
TOTAL RUN TIME: 0 days 0 hours 22 minutes 53 seconds 16 msec
