                         Program Version 6.0.1  -  RELEASE   -
|  1> ! wB97X-3c OPT FREQ TightSCF
|  2> %pal
|  3>   nprocs 40
|  4> end
|  5> * xyz 0 1
|  6> F     -1.848000     2.529390    -1.445991
|  7> O      3.130093     2.834683    -1.495377
|  8> O      5.700279     2.600057    -1.100138
|  9> O      6.267147     0.703010     0.041533
| 10> N      2.311318    -0.571048     0.551608
| 11> N     -2.496795     0.254483     0.076443
| 12> N     -5.065997     0.040626    -0.735344
| 13> C      2.075233    -1.827001     1.289940
| 14> C      1.448796    -2.935207     0.448423
| 15> C      2.911808    -3.020681     0.830375
| 16> C      1.269045     0.204275     0.088838
| 17> C      3.603719    -0.143224     0.416949
| 18> C      1.542652     1.390043    -0.640087
| 19> C     -0.080599    -0.142291     0.332362
| 20> C     -1.132290     0.637452    -0.167956
| 21> C     -3.401633     1.154733     0.800814
| 22> C     -2.951938    -1.094598    -0.282506
| 23> C      3.924905     1.026198    -0.288767
| 24> C      2.877239     1.787877    -0.836671
| 25> C     -4.791216     1.204020     0.129114
| 26> C     -4.477115    -1.189204    -0.197985
| 27> C      0.477836     2.160137    -1.146423
| 28> C     -0.844588     1.783344    -0.918634
| 29> C      5.351468     1.426440    -0.436679
| 30> H      6.670698     2.873023    -1.200678
| 31> H     -6.103368    -0.089897    -0.788529
| 32> H      1.791953    -1.775440     2.362664
| 33> H      1.275561    -2.687900    -0.621070
| 34> H      0.788913    -3.623078     1.017827
| 35> H      3.590506    -2.862603    -0.034690
| 36> H      3.120303    -3.772766     1.620032
| 37> H      4.404714    -0.726437     0.857069
| 38> H     -0.332414    -1.002895     0.934177
| 39> H     -3.512335     0.776607     1.840355
| 40> H     -2.981071     2.181466     0.870993
| 41> H     -2.494283    -1.847791     0.393314
| 42> H     -2.638847    -1.316611    -1.326251
| 43> H     -5.572794     1.288520     0.917590
| 44> H     -4.853150     2.119570    -0.497162
| 45> H     -4.797365    -1.345287     0.857376
| 46> H     -4.823194    -2.061693    -0.793829
| 47> H      0.664807     3.059702    -1.720268
| 48> *
| 49>
| 50>                          ****END OF INPUT****
 Total Charge           Charge          ....    0
 Multiplicity           Mult            ....    1
 Number of Electrons    NEL             ....  126
Dispersion correction           -0.064448418
FINAL SINGLE POINT ENERGY      -209.968161213771
Dispersion correction             ... done (  0.1 sec)
Dispersion correction           -0.065365727
FINAL SINGLE POINT ENERGY      -210.008886674281
Dispersion correction             ... done (  0.1 sec)
Dispersion correction           -0.065902868
FINAL SINGLE POINT ENERGY      -210.022723081496
Dispersion correction             ... done (  0.1 sec)
FINAL SINGLE POINT ENERGY      -210.027404310168
FINAL SINGLE POINT ENERGY      -210.030286887058
FINAL SINGLE POINT ENERGY      -210.030877792277
FINAL SINGLE POINT ENERGY      -210.031194926535
FINAL SINGLE POINT ENERGY      -210.031593477776
FINAL SINGLE POINT ENERGY      -210.031712463646
FINAL SINGLE POINT ENERGY      -210.031735219531
FINAL SINGLE POINT ENERGY      -210.031743570107
Dispersion correction             ... done (  0.1 sec)
Dispersion correction           -0.065928144
FINAL SINGLE POINT ENERGY      -210.031746921566
Dispersion correction             ... done (  0.1 sec)
Dispersion correction           -0.065925993
FINAL SINGLE POINT ENERGY      -210.031748477310
Dispersion correction             ... done (  0.0 sec)
                    ***********************HURRAY********************

CARTESIAN COORDINATES (ANGSTROEM)
---------------------------------
  F     -1.820382    2.785893   -1.127957
  O      3.110006    3.068421   -1.267898
  O      5.739184    2.459265   -0.752006
  O      6.161921    0.408165   -0.028111
  N      2.251474   -0.569987    0.358382
  N     -2.475944    0.366329    0.121837
  N     -4.851824   -0.397324   -0.695711
  C      1.984854   -1.853052    0.946977
  C      1.371459   -2.920493    0.106342
  C      2.798077   -3.025889    0.524137
  C      1.203976    0.289292    0.022209
  C      3.518857   -0.150894    0.219919
  C      1.506137    1.527675   -0.526030
  C     -0.118272   -0.081789    0.253686
  C     -1.178261    0.752733   -0.078124
  C     -3.544483    1.270449    0.492071
  C     -2.781718   -1.024808    0.376504
  C      3.898309    1.045225   -0.294699
  C      2.886622    1.991805   -0.751622
  C     -4.756632    1.024487   -0.392775
  C     -4.291886   -1.230519    0.339625
  C      0.448927    2.361928   -0.886450
  C     -0.835820    1.977978   -0.686826
  C      5.356791    1.254331   -0.342956
  H      6.702680    2.458688   -0.732993
  H     -5.792799   -0.666248   -0.928951
  H      1.686780   -1.801426    1.987250
  H      1.177268   -2.669961   -0.926737
  H      0.639417   -3.567670    0.567657
  H      3.548900   -2.874058   -0.237238
  H      3.068696   -3.738923    1.288664
  H      4.281322   -0.840649    0.547543
  H     -0.326363   -1.029432    0.715328
  H     -3.799286    1.101482    1.543163
  H     -3.223608    2.300021    0.413845
  H     -2.397211   -1.359823    1.348548
  H     -2.309977   -1.625064   -0.402428
  H     -5.643531    1.406156    0.126126
  H     -4.647828    1.578360   -1.325555
  H     -4.720684   -1.035010    1.331962
  H     -4.495306   -2.275298    0.111239
  H      0.670159    3.309640   -1.355187

 Multiplicity           Mult            ....    1
 Number of Electrons    NEL             ....  126
 Basis Dimension        Dim             ....  402

ORBITAL ENERGIES
----------------

  NO   OCC          E(Eh)            E(eV)
   0   2.0000      -1.357687       -36.9446
   1   2.0000      -1.235417       -33.6174
   2   2.0000      -1.161904       -31.6170
   3   2.0000      -1.142404       -31.0864
   4   2.0000      -1.129557       -30.7368
   5   2.0000      -1.120672       -30.4950
   6   2.0000      -1.054771       -28.7018
   7   2.0000      -1.040443       -28.3119
   8   2.0000      -1.007811       -27.4239
   9   2.0000      -0.952230       -25.9115
  10   2.0000      -0.925354       -25.1802
  11   2.0000      -0.920101       -25.0372
  12   2.0000      -0.904654       -24.6169
  13   2.0000      -0.845830       -23.0162
  14   2.0000      -0.818919       -22.2839
  15   2.0000      -0.809059       -22.0156
  16   2.0000      -0.787021       -21.4159
  17   2.0000      -0.777691       -21.1620
  18   2.0000      -0.767196       -20.8765
  19   2.0000      -0.744802       -20.2671
  20   2.0000      -0.725742       -19.7484
  21   2.0000      -0.708229       -19.2719
  22   2.0000      -0.687942       -18.7198
  23   2.0000      -0.684365       -18.6225
  24   2.0000      -0.678647       -18.4669
  25   2.0000      -0.656180       -17.8556
  26   2.0000      -0.642059       -17.4713
  27   2.0000      -0.640569       -17.4308
  28   2.0000      -0.627518       -17.0756
  29   2.0000      -0.608112       -16.5476
  30   2.0000      -0.602954       -16.4072
  31   2.0000      -0.596946       -16.2437
  32   2.0000      -0.590332       -16.0638
  33   2.0000      -0.588674       -16.0186
  34   2.0000      -0.582144       -15.8409
  35   2.0000      -0.579388       -15.7659
  36   2.0000      -0.568157       -15.4603
  37   2.0000      -0.559042       -15.2123
  38   2.0000      -0.550664       -14.9843
  39   2.0000      -0.545983       -14.8570
  40   2.0000      -0.534147       -14.5349
  41   2.0000      -0.530691       -14.4408
  42   2.0000      -0.528685       -14.3862
  43   2.0000      -0.519145       -14.1267
  44   2.0000      -0.506951       -13.7948
  45   2.0000      -0.504696       -13.7335
  46   2.0000      -0.503647       -13.7049
  47   2.0000      -0.500276       -13.6132
  48   2.0000      -0.497260       -13.5311
  49   2.0000      -0.484707       -13.1895
  50   2.0000      -0.478036       -13.0080
  51   2.0000      -0.472052       -12.8452
  52   2.0000      -0.457802       -12.4574
  53   2.0000      -0.444372       -12.0920
  54   2.0000      -0.437897       -11.9158
  55   2.0000      -0.426373       -11.6022
  56   2.0000      -0.400756       -10.9051
  57   2.0000      -0.389414       -10.5965
  58   2.0000      -0.369935       -10.0665
  59   2.0000      -0.345386        -9.3984
  60   2.0000      -0.340182        -9.2568
  61   2.0000      -0.319798        -8.7021
  62   2.0000      -0.299367        -8.1462
  63   0.0000       0.022864         0.6222
  64   0.0000       0.034457         0.9376
  65   0.0000       0.063427         1.7259
  66   0.0000       0.074258         2.0207
  67   0.0000       0.080910         2.2017

MULLIKEN ATOMIC CHARGES
-----------------------
   0 F :   -0.247058
   1 O :   -0.340689
   2 O :   -0.124283
   3 O :   -0.379668
   4 N :   -0.183292
   5 N :   -0.246904
   6 N :   -0.231771
   7 C :   -0.004451
   8 C :   -0.039978
   9 C :   -0.021123
  10 C :    0.143489
  11 C :    0.178584
  12 C :   -0.108721
  13 C :   -0.076914
  14 C :    0.061175
  15 C :    0.041401
  16 C :    0.050274
  17 C :   -0.155628
  18 C :    0.171464
  19 C :    0.058258
  20 C :    0.017598
  21 C :    0.089924
  22 C :    0.163944
  23 C :    0.227923
  24 H :    0.166142
  25 H :    0.080239
  26 H :    0.055457
  27 H :    0.065186
  28 H :    0.043098
  29 H :    0.063113
  30 H :    0.046944
  31 H :    0.052808
  32 H :   -0.002254
  33 H :    0.027893
  34 H :    0.075365
  35 H :    0.036579
  36 H :    0.057887
  37 H :    0.025723
  38 H :    0.052152
  39 H :    0.016373
  40 H :    0.045559
  41 H :    0.048180
Sum of atomic charges:    0.0000000

LOEWDIN ATOMIC CHARGES
----------------------
   0 F :   -0.076358
   1 O :   -0.160957
   2 O :    0.043983
   3 O :   -0.181151
   4 N :    0.123365
   5 N :    0.070480
   6 N :    0.003676
   7 C :   -0.053526
   8 C :   -0.053048
   9 C :   -0.047962
  10 C :   -0.020036
  11 C :    0.035309
  12 C :   -0.052425
  13 C :   -0.051317
  14 C :   -0.033611
  15 C :   -0.061077
  16 C :   -0.066097
  17 C :   -0.076383
  18 C :   -0.045915
  19 C :   -0.070948
  20 C :   -0.085303
  21 C :    0.011100
  22 C :    0.019152
  23 C :   -0.041346
  24 H :    0.067682
  25 H :    0.022201
  26 H :    0.049559
  27 H :    0.052297
  28 H :    0.045122
  29 H :    0.052552
  30 H :    0.050151
  31 H :    0.071377
  32 H :    0.035637
  33 H :    0.040668
  34 H :    0.053861
  35 H :    0.038214
  36 H :    0.053549
  37 H :    0.036172
  38 H :    0.049427
  39 H :    0.028380
  40 H :    0.055659
  41 H :    0.067888

  Mayer bond orders larger than 0.100000
B(  0-F , 22-C ) :   0.9440 B(  1-O , 18-C ) :   1.8400 B(  2-O , 23-C ) :   1.2124
B(  2-O , 24-H ) :   1.0110 B(  3-O , 23-C ) :   1.8501 B(  4-N ,  7-C ) :   1.0242
B(  4-N , 10-C ) :   1.0695 B(  4-N , 11-C ) :   1.2508 B(  5-N , 14-C ) :   1.1949
B(  5-N , 15-C ) :   0.9474 B(  5-N , 16-C ) :   0.9806 B(  6-N , 19-C ) :   0.9653
B(  6-N , 20-C ) :   1.0030 B(  6-N , 25-H ) :   1.0374 B(  7-C ,  8-C ) :   0.9625
B(  7-C ,  9-C ) :   0.9770 B(  7-C , 26-H ) :   0.9959 B(  8-C ,  9-C ) :   0.9758
B(  8-C , 27-H ) :   0.9912 B(  8-C , 28-H ) :   0.9987 B(  9-C , 29-H ) :   0.9887
B(  9-C , 30-H ) :   0.9958 B( 10-C , 12-C ) :   1.4336 B( 10-C , 13-C ) :   1.3976
B( 11-C , 17-C ) :   1.6137 B( 11-C , 31-H ) :   0.9832 B( 12-C , 18-C ) :   1.0933
B( 12-C , 21-C ) :   1.3400 B( 13-C , 14-C ) :   1.4476 B( 13-C , 32-H ) :   0.9663
B( 14-C , 22-C ) :   1.3407 B( 15-C , 19-C ) :   0.9911 B( 15-C , 33-H ) :   0.9941
B( 15-C , 34-H ) :   0.9957 B( 16-C , 20-C ) :   0.9915 B( 16-C , 35-H ) :   0.9866
B( 16-C , 36-H ) :   0.9908 B( 17-C , 18-C ) :   1.1285 B( 17-C , 23-C ) :   1.0931
B( 19-C , 37-H ) :   0.9980 B( 19-C , 38-H ) :   1.0017 B( 20-C , 39-H ) :   0.9911
B( 20-C , 40-H ) :   1.0018 B( 21-C , 22-C ) :   1.5248 B( 21-C , 41-H ) :   0.9597

Dispersion correction           -0.065924937
FINAL SINGLE POINT ENERGY      -210.031749110677

DIPOLE MOMENT
-------------

Method             : SCF
Type of density    : Electron Density
Multiplicity       :   1
Irrep              :   0
Energy             :  -209.9658241735322406 Eh
Relativity type    :
Basis              : AO
                                X                 Y                 Z
Electronic contribution:     22.273764742      15.946135792      -4.969504757
Nuclear contribution   :    -24.640886814     -18.393864040       6.408265656
                        -----------------------------------------
Total Dipole Moment    :     -2.367122072      -2.447728248       1.438760899
                        -----------------------------------------
Magnitude (a.u.)       :      3.696575902
Magnitude (Debye)      :      9.395949236

VIBRATIONAL FREQUENCIES
-----------------------

Scaling factor for frequencies =  1.000000000  (already applied!)

     0:       0.00 cm**-1
     1:       0.00 cm**-1
     2:       0.00 cm**-1
     3:       0.00 cm**-1
     4:       0.00 cm**-1
     5:       0.00 cm**-1
     6:      24.08 cm**-1
     7:      32.50 cm**-1
     8:      42.44 cm**-1
     9:      46.69 cm**-1
    10:      65.69 cm**-1
    11:      83.85 cm**-1
    12:      91.01 cm**-1
    13:     114.52 cm**-1
    14:     150.34 cm**-1
    15:     154.29 cm**-1
    16:     175.01 cm**-1
    17:     197.94 cm**-1
    18:     211.06 cm**-1
    19:     242.65 cm**-1
    20:     280.78 cm**-1
    21:     288.24 cm**-1
    22:     300.07 cm**-1
    23:     320.82 cm**-1
    24:     343.54 cm**-1
    25:     365.07 cm**-1
    26:     387.74 cm**-1
    27:     393.93 cm**-1
    28:     410.21 cm**-1
    29:     411.64 cm**-1
    30:     473.44 cm**-1
    31:     477.52 cm**-1
    32:     507.38 cm**-1
    33:     526.70 cm**-1
    34:     543.34 cm**-1
    35:     559.89 cm**-1
    36:     572.23 cm**-1
    37:     617.40 cm**-1
    38:     638.78 cm**-1
    39:     655.58 cm**-1
    40:     690.23 cm**-1
    41:     705.35 cm**-1
    42:     736.92 cm**-1
    43:     740.08 cm**-1
    44:     756.81 cm**-1
    45:     778.61 cm**-1
    46:     794.00 cm**-1
    47:     805.65 cm**-1
    48:     818.42 cm**-1
    49:     842.72 cm**-1
    50:     861.46 cm**-1
    51:     869.07 cm**-1
    52:     871.45 cm**-1
    53:     895.97 cm**-1
    54:     929.90 cm**-1
    55:     951.74 cm**-1
    56:     963.24 cm**-1
    57:     978.75 cm**-1
    58:    1001.43 cm**-1
    59:    1020.09 cm**-1
    60:    1029.46 cm**-1
    61:    1039.05 cm**-1
    62:    1076.71 cm**-1
    63:    1092.34 cm**-1
    64:    1103.93 cm**-1
    65:    1114.43 cm**-1
    66:    1123.42 cm**-1
    67:    1148.65 cm**-1
    68:    1160.06 cm**-1
    69:    1169.89 cm**-1
    70:    1184.10 cm**-1
    71:    1215.46 cm**-1
    72:    1218.99 cm**-1
    73:    1223.66 cm**-1
    74:    1239.59 cm**-1
    75:    1244.26 cm**-1
    76:    1257.45 cm**-1
    77:    1275.12 cm**-1
    78:    1287.33 cm**-1
    79:    1299.11 cm**-1
    80:    1302.29 cm**-1
    81:    1319.62 cm**-1
    82:    1323.53 cm**-1
    83:    1357.10 cm**-1
    84:    1374.56 cm**-1
    85:    1395.37 cm**-1
    86:    1404.72 cm**-1
    87:    1410.63 cm**-1
    88:    1432.95 cm**-1
    89:    1449.15 cm**-1
    90:    1457.12 cm**-1
    91:    1464.98 cm**-1
    92:    1470.48 cm**-1
    93:    1487.26 cm**-1
    94:    1490.25 cm**-1
    95:    1515.85 cm**-1
    96:    1534.87 cm**-1
    97:    1538.33 cm**-1
    98:    1546.78 cm**-1
    99:    1556.58 cm**-1
   100:    1560.40 cm**-1
   101:    1564.90 cm**-1
   102:    1604.26 cm**-1
   103:    1654.37 cm**-1
   104:    1709.70 cm**-1
   105:    1734.00 cm**-1
   106:    1800.67 cm**-1
   107:    1834.62 cm**-1
   108:    3023.50 cm**-1
   109:    3040.37 cm**-1
   110:    3057.49 cm**-1
   111:    3077.19 cm**-1
   112:    3139.32 cm**-1
   113:    3148.03 cm**-1
   114:    3168.69 cm**-1
   115:    3209.46 cm**-1
   116:    3213.69 cm**-1
   117:    3221.81 cm**-1
   118:    3258.15 cm**-1
   119:    3287.20 cm**-1
   120:    3298.13 cm**-1
   121:    3308.67 cm**-1
   122:    3319.98 cm**-1
   123:    3330.94 cm**-1
   124:    3678.77 cm**-1
   125:    3880.60 cm**-1

IR SPECTRUM
-----------

 Mode   freq       eps      Int      T**2         TX        TY        TZ
       cm**-1   L/(mol*cm) km/mol    a.u.
----------------------------------------------------------------------------
  6:     24.08   0.000236    1.19  0.003055  ( 0.022959  0.024410  0.043960)
  7:     32.50   0.000644    3.25  0.006184  (-0.012162  0.030463  0.071470)
  8:     42.44   0.000249    1.26  0.001831  (-0.037104  0.000442 -0.021316)
  9:     46.69   0.000157    0.79  0.001048  ( 0.029981 -0.007980  0.009230)
 10:     65.69   0.000117    0.59  0.000554  (-0.004234  0.000437  0.023144)
 11:     83.85   0.000210    1.06  0.000780  (-0.024118 -0.002126 -0.013939)
 12:     91.01   0.000108    0.55  0.000371  ( 0.006562  0.009938  0.015125)
 13:    114.52   0.000323    1.63  0.000881  (-0.018560 -0.017502 -0.015181)
 14:    150.34   0.000153    0.77  0.000318  ( 0.017811  0.000072  0.000927)
 15:    154.29   0.000102    0.51  0.000206  ( 0.009702  0.010178  0.002807)
 16:    175.01   0.000073    0.37  0.000131  ( 0.009992  0.003209  0.004528)
 17:    197.94   0.000186    0.94  0.000294  (-0.002612  0.005698  0.015956)
 18:    211.06   0.000070    0.35  0.000104  ( 0.001430 -0.000556 -0.010067)
 19:    242.65   0.000548    2.77  0.000704  ( 0.024847 -0.001150  0.009253)
 20:    280.78   0.000884    4.47  0.000982  ( 0.022942 -0.020603 -0.005584)
 21:    288.24   0.001471    7.44  0.001593  (-0.039908  0.000463 -0.000341)
 22:    300.07   0.000702    3.55  0.000730  ( 0.018025 -0.015929  0.012320)
 23:    320.82   0.000920    4.65  0.000895  ( 0.021570  0.018723  0.008904)
 24:    343.54   0.000126    0.64  0.000114  (-0.006835  0.008083 -0.001469)
 25:    365.07   0.000912    4.61  0.000780  ( 0.018794  0.019867 -0.005631)
 26:    387.74   0.000756    3.82  0.000608  ( 0.001813  0.021211 -0.012455)
 27:    393.93   0.000798    4.03  0.000632  (-0.009307 -0.012521 -0.019713)
 28:    410.21   0.000583    2.95  0.000444  (-0.016878 -0.011587 -0.004976)
 29:    411.64   0.000648    3.27  0.000491  ( 0.000893  0.014584 -0.016660)
 30:    473.44   0.002563   12.95  0.001690  (-0.026071 -0.010730 -0.029914)
 31:    477.52   0.001413    7.14  0.000923  (-0.014681 -0.023151 -0.013104)
 32:    507.38   0.001253    6.33  0.000771  (-0.007314 -0.025814  0.007143)
 33:    526.70   0.000812    4.11  0.000481  (-0.011801 -0.016650 -0.008054)
 34:    543.34   0.007801   39.42  0.004480  ( 0.004520 -0.020934 -0.063416)
 35:    559.89   0.000475    2.40  0.000264  ( 0.000397  0.015869 -0.003537)
 36:    572.23   0.002951   14.91  0.001609  (-0.029055 -0.021314 -0.017627)
 37:    617.40   0.015827   79.98  0.008000  (-0.002798  0.027911  0.084928)
 38:    638.78   0.013920   70.34  0.006800  ( 0.078972  0.023625 -0.002317)
 39:    655.58   0.007214   36.46  0.003434  (-0.031257 -0.020966 -0.044917)
 40:    690.23   0.005043   25.48  0.002280  (-0.038059 -0.006512  0.028089)
 41:    705.35   0.007553   38.17  0.003342  ( 0.046471  0.032838 -0.010182)
 42:    736.92   0.002879   14.55  0.001219  (-0.002767  0.027366  0.021508)
 43:    740.08   0.000805    4.07  0.000339  ( 0.013539 -0.011472  0.004954)
 44:    756.81   0.007440   37.60  0.003068  (-0.019532  0.000623  0.051827)
 45:    778.61   0.003060   15.46  0.001226  (-0.010107  0.015018 -0.029976)
 46:    794.00   0.003016   15.24  0.001185  (-0.007627  0.019962  0.026991)
 47:    805.65   0.004457   22.52  0.001726  (-0.009471  0.033213 -0.023099)
 48:    818.42   0.004057   20.50  0.001547  (-0.033720  0.011196 -0.016873)
 49:    842.72   0.005161   26.08  0.001911  (-0.002117  0.016294  0.040510)
 50:    861.46   0.010949   55.33  0.003966  (-0.007576 -0.033177 -0.052991)
 51:    869.07   0.002590   13.09  0.000930  ( 0.002453 -0.028269  0.011177)
 52:    871.45   0.003131   15.82  0.001121  ( 0.024132 -0.012994 -0.019235)
 53:    895.97   0.001732    8.75  0.000603  ( 0.017889  0.013159  0.010497)
 54:    929.90   0.000485    2.45  0.000163  ( 0.005135  0.003543  0.011136)
 55:    951.74   0.003493   17.65  0.001145  (-0.023066 -0.022781 -0.009713)
 56:    963.24   0.003987   20.15  0.001292  ( 0.006981  0.016077  0.031377)
 57:    978.75   0.000789    3.99  0.000252  (-0.012429 -0.000454  0.009841)
 58:   1001.43   0.005532   27.96  0.001724  ( 0.040212 -0.009979 -0.002710)
 59:   1020.09   0.000932    4.71  0.000285  (-0.005375  0.000037 -0.016007)
 60:   1029.46   0.001450    7.33  0.000440  (-0.005256  0.020262  0.001159)
 61:   1039.05   0.000774    3.91  0.000232  ( 0.002252 -0.014401 -0.004474)
 62:   1076.71   0.002935   14.83  0.000851  (-0.023930  0.003308  0.016341)
 63:   1092.34   0.001341    6.78  0.000383  (-0.016165 -0.000891  0.011005)
 64:   1103.93   0.002902   14.67  0.000820  ( 0.010303  0.026649  0.002023)
 65:   1114.43   0.003051   15.42  0.000854  (-0.026533 -0.010361  0.006546)
 66:   1123.42   0.000501    2.53  0.000139  ( 0.009122  0.004440  0.006023)
 67:   1148.65   0.008169   41.28  0.002219  ( 0.040831  0.014869 -0.018192)
 68:   1160.06   0.003928   19.85  0.001057  ( 0.025744  0.019772 -0.001684)
 69:   1169.89   0.002779   14.04  0.000741  (-0.005365  0.026531 -0.002933)
 70:   1184.10   0.005937   30.01  0.001565  (-0.034155 -0.019367  0.004815)
 71:   1215.46   0.031151  157.42  0.007998  (-0.076705 -0.045159  0.008653)
 72:   1218.99   0.009296   46.98  0.002380  (-0.031371 -0.034634  0.014006)
 73:   1223.66   0.000463    2.34  0.000118  (-0.001612 -0.008707  0.006289)
 74:   1239.59   0.025844  130.60  0.006506  ( 0.045358  0.061355 -0.026159)
 75:   1244.26   0.020361  102.90  0.005107  (-0.036934 -0.058880  0.016604)
 76:   1257.45   0.001187    6.00  0.000294  ( 0.009142  0.014521  0.000208)
 77:   1275.12   0.002405   12.15  0.000589  (-0.023634 -0.000022 -0.005472)
 78:   1287.33   0.004203   21.24  0.001019  ( 0.010271 -0.029709  0.005552)
 79:   1299.11   0.003177   16.06  0.000763  (-0.015453  0.015901 -0.016480)
 80:   1302.29   0.007728   39.05  0.001852  (-0.040712 -0.013744  0.002324)
 81:   1319.62   0.037865  191.35  0.008954  ( 0.094565  0.003438 -0.000017)
 82:   1323.53   0.009257   46.78  0.002183  ( 0.028268 -0.037087  0.002842)
 83:   1357.10   0.012175   61.53  0.002800  ( 0.018506 -0.046252  0.017830)
 84:   1374.56   0.037337  188.69  0.008477  ( 0.090292  0.016693 -0.006718)
 85:   1395.37   0.002856   14.43  0.000639  (-0.024096  0.003646 -0.006696)
 86:   1404.72   0.019614   99.12  0.004357  ( 0.038900  0.049493 -0.019866)
 87:   1410.63   0.004542   22.95  0.001005  (-0.028079  0.014511 -0.002415)
 88:   1432.95   0.001621    8.19  0.000353  ( 0.012859  0.013644 -0.001196)
 89:   1449.15   0.008137   41.12  0.001752  (-0.036534  0.019981 -0.004271)
 90:   1457.12   0.005926   29.95  0.001269  (-0.026616 -0.021430  0.010073)
 91:   1464.98   0.013228   66.85  0.002818  ( 0.050623  0.015277 -0.004653)
 92:   1470.48   0.032682  165.16  0.006936  ( 0.082315  0.012312 -0.002895)
 93:   1487.26   0.006737   34.05  0.001414  ( 0.028245  0.020343 -0.014210)
 94:   1490.25   0.001573    7.95  0.000329  ( 0.004321 -0.013080  0.011815)
 95:   1515.85   0.001723    8.71  0.000355  ( 0.003402  0.017945 -0.004593)
 96:   1534.87   0.010530   53.22  0.002141  ( 0.045060  0.010513  0.000278)
 97:   1538.33   0.004419   22.33  0.000896  ( 0.025806 -0.004096 -0.014621)
 98:   1546.78   0.002646   13.37  0.000534  (-0.022080 -0.005386 -0.004150)
 99:   1556.58   0.006958   35.16  0.001395  ( 0.002932 -0.037174  0.002097)
100:   1560.40   0.012276   62.04  0.002455  (-0.046881  0.015486 -0.004170)
101:   1564.90   0.026593  134.39  0.005303  ( 0.070584 -0.010842  0.014260)
102:   1604.26   0.138969  702.29  0.027032  (-0.163908 -0.005545  0.011662)
103:   1654.37   0.005397   27.28  0.001018  ( 0.021677  0.022822 -0.005228)
104:   1709.70   0.008556   43.24  0.001562  (-0.031895 -0.023174  0.002714)
105:   1734.00   0.129768  655.79  0.023354  (-0.139384 -0.053430  0.032729)
106:   1800.67   0.075538  381.74  0.013091  ( 0.058313  0.089511 -0.040968)
107:   1834.62   0.111263  562.28  0.018926  ( 0.063723 -0.113490  0.044552)
108:   3023.50   0.004150   20.97  0.000428  ( 0.013757 -0.000757 -0.015443)
109:   3040.37   0.018160   91.77  0.001864  ( 0.002777  0.027974 -0.032767)
110:   3057.49   0.010804   54.60  0.001103  (-0.023347  0.023197 -0.004417)
111:   3077.19   0.023692  119.73  0.002403  ( 0.033759 -0.011338 -0.033682)
112:   3139.32   0.003075   15.54  0.000306  ( 0.005904 -0.002896 -0.016199)
113:   3148.03   0.004454   22.51  0.000442  (-0.007304 -0.007512  0.018214)
114:   3168.69   0.004102   20.73  0.000404  (-0.003642 -0.018547 -0.006838)
115:   3209.46   0.000705    3.56  0.000069  ( 0.006058 -0.000979  0.005558)
116:   3213.69   0.001617    8.17  0.000157  (-0.007548 -0.004996  0.008668)
117:   3221.81   0.000998    5.04  0.000097  ( 0.000290  0.007422 -0.006441)
118:   3258.15   0.000463    2.34  0.000044  ( 0.005046 -0.003236 -0.002894)
119:   3287.20   0.001758    8.88  0.000167  ( 0.009858  0.007531 -0.003604)
120:   3298.13   0.001026    5.18  0.000097  ( 0.009289 -0.003247  0.000501)
121:   3308.67   0.000256    1.30  0.000024  ( 0.004743  0.001289  0.000163)
122:   3319.98   0.000248    1.25  0.000023  ( 0.001279 -0.004546  0.001007)
123:   3330.94   0.000266    1.34  0.000025  ( 0.004648 -0.000012 -0.001813)
124:   3678.77   0.002461   12.44  0.000209  ( 0.013767  0.003293  0.002897)
125:   3880.60   0.030232  152.78  0.002431  (-0.046926 -0.014496  0.004355)

--------------------------
THERMOCHEMISTRY AT 298.15K
--------------------------

Temperature         ...   298.15 K
Pressure            ...     1.00 atm
Total Mass          ...   331.35 AMU
Quasi RRHO          ...     True
Cut-Off Frequency   ...     1.00 cm^-1

Throughout the following assumptions are being made:
  (1) The electronic state is orbitally nondegenerate
  (2) There are no thermally accessible electronically excited states
  (3) Hindered rotations indicated by low frequency modes are not
      treated as such but are treated as vibrations and this may
      cause some error
  (4) All equations used are the standard statistical mechanics
      equations for an ideal gas
  (5) All vibrations are strictly harmonic

freq.      24.08  E(vib)   ...       0.56
freq.      32.50  E(vib)   ...       0.55
freq.      42.44  E(vib)   ...       0.53
freq.      46.69  E(vib)   ...       0.53
freq.      65.69  E(vib)   ...       0.50
freq.      83.85  E(vib)   ...       0.48
freq.      91.01  E(vib)   ...       0.47
freq.     114.52  E(vib)   ...       0.44
freq.     150.34  E(vib)   ...       0.40
freq.     154.29  E(vib)   ...       0.40
freq.     175.01  E(vib)   ...       0.38
freq.     197.94  E(vib)   ...       0.35
freq.     211.06  E(vib)   ...       0.34
freq.     242.65  E(vib)   ...       0.31
freq.     280.78  E(vib)   ...       0.28
freq.     288.24  E(vib)   ...       0.27
freq.     300.07  E(vib)   ...       0.26
freq.     320.82  E(vib)   ...       0.25
freq.     343.54  E(vib)   ...       0.23
freq.     365.07  E(vib)   ...       0.22
freq.     387.74  E(vib)   ...       0.20
freq.     393.93  E(vib)   ...       0.20
freq.     410.21  E(vib)   ...       0.19
freq.     411.64  E(vib)   ...       0.19
freq.     473.44  E(vib)   ...       0.15
freq.     477.52  E(vib)   ...       0.15
freq.     507.38  E(vib)   ...       0.14
freq.     526.70  E(vib)   ...       0.13
freq.     543.34  E(vib)   ...       0.12
freq.     559.89  E(vib)   ...       0.12
freq.     572.23  E(vib)   ...       0.11
freq.     617.40  E(vib)   ...       0.09
freq.     638.78  E(vib)   ...       0.09
freq.     655.58  E(vib)   ...       0.08
freq.     690.23  E(vib)   ...       0.07
freq.     705.35  E(vib)   ...       0.07
freq.     736.92  E(vib)   ...       0.06
freq.     740.08  E(vib)   ...       0.06
freq.     756.81  E(vib)   ...       0.06
freq.     778.61  E(vib)   ...       0.05
freq.     794.00  E(vib)   ...       0.05
freq.     805.65  E(vib)   ...       0.05
freq.     818.42  E(vib)   ...       0.05
freq.     842.72  E(vib)   ...       0.04
freq.     861.46  E(vib)   ...       0.04
freq.     869.07  E(vib)   ...       0.04
freq.     871.45  E(vib)   ...       0.04
freq.     895.97  E(vib)   ...       0.03
freq.     929.90  E(vib)   ...       0.03
freq.     951.74  E(vib)   ...       0.03
freq.     963.24  E(vib)   ...       0.03
freq.     978.75  E(vib)   ...       0.03
freq.    1001.43  E(vib)   ...       0.02
freq.    1020.09  E(vib)   ...       0.02
freq.    1029.46  E(vib)   ...       0.02
freq.    1039.05  E(vib)   ...       0.02
freq.    1076.71  E(vib)   ...       0.02
freq.    1092.34  E(vib)   ...       0.02
freq.    1103.93  E(vib)   ...       0.02
freq.    1114.43  E(vib)   ...       0.01
freq.    1123.42  E(vib)   ...       0.01
freq.    1148.65  E(vib)   ...       0.01
freq.    1160.06  E(vib)   ...       0.01
freq.    1169.89  E(vib)   ...       0.01
freq.    1184.10  E(vib)   ...       0.01
freq.    1215.46  E(vib)   ...       0.01
freq.    1218.99  E(vib)   ...       0.01
freq.    1223.66  E(vib)   ...       0.01
freq.    1239.59  E(vib)   ...       0.01
freq.    1244.26  E(vib)   ...       0.01
freq.    1257.45  E(vib)   ...       0.01
freq.    1275.12  E(vib)   ...       0.01
freq.    1287.33  E(vib)   ...       0.01
freq.    1299.11  E(vib)   ...       0.01
freq.    1302.29  E(vib)   ...       0.01
freq.    1319.62  E(vib)   ...       0.01
freq.    1323.53  E(vib)   ...       0.01
freq.    1357.10  E(vib)   ...       0.01
freq.    1374.56  E(vib)   ...       0.01
freq.    1395.37  E(vib)   ...       0.00
freq.    1404.72  E(vib)   ...       0.00
freq.    1410.63  E(vib)   ...       0.00
freq.    1432.95  E(vib)   ...       0.00
freq.    1449.15  E(vib)   ...       0.00
freq.    1457.12  E(vib)   ...       0.00
freq.    1464.98  E(vib)   ...       0.00
freq.    1470.48  E(vib)   ...       0.00
freq.    1487.26  E(vib)   ...       0.00
freq.    1490.25  E(vib)   ...       0.00
freq.    1515.85  E(vib)   ...       0.00
freq.    1534.87  E(vib)   ...       0.00
freq.    1538.33  E(vib)   ...       0.00
freq.    1546.78  E(vib)   ...       0.00
freq.    1556.58  E(vib)   ...       0.00
freq.    1560.40  E(vib)   ...       0.00
freq.    1564.90  E(vib)   ...       0.00
freq.    1604.26  E(vib)   ...       0.00
freq.    1654.37  E(vib)   ...       0.00
freq.    1709.70  E(vib)   ...       0.00
freq.    1734.00  E(vib)   ...       0.00
freq.    1800.67  E(vib)   ...       0.00
freq.    1834.62  E(vib)   ...       0.00
freq.    3023.50  E(vib)   ...       0.00
freq.    3040.37  E(vib)   ...       0.00
freq.    3057.49  E(vib)   ...       0.00
freq.    3077.19  E(vib)   ...       0.00
freq.    3139.32  E(vib)   ...       0.00
freq.    3148.03  E(vib)   ...       0.00
freq.    3168.69  E(vib)   ...       0.00
freq.    3209.46  E(vib)   ...       0.00
freq.    3213.69  E(vib)   ...       0.00
freq.    3221.81  E(vib)   ...       0.00
freq.    3258.15  E(vib)   ...       0.00
freq.    3287.20  E(vib)   ...       0.00
freq.    3298.13  E(vib)   ...       0.00
freq.    3308.67  E(vib)   ...       0.00
freq.    3319.98  E(vib)   ...       0.00
freq.    3330.94  E(vib)   ...       0.00
freq.    3678.77  E(vib)   ...       0.00
freq.    3880.60  E(vib)   ...       0.00

------------
INNER ENERGY
------------

The inner energy is: U= E(el) + E(ZPE) + E(vib) + E(rot) + E(trans)
    E(el)   - is the total energy from the electronic structure calculation
              = E(kin-el) + E(nuc-el) + E(el-el) + E(nuc-nuc)
    E(ZPE)  - the the zero temperature vibrational energy from the frequency calculation
    E(vib)  - the the finite temperature correction to E(ZPE) due to population
              of excited vibrational states
    E(rot)  - is the rotational thermal energy
    E(trans)- is the translational thermal energy

Summary of contributions to the inner energy U:
Electronic energy                ...   -210.03174911 Eh
Zero point energy                ...      0.34668825 Eh     217.55 kcal/mol
Thermal vibrational correction   ...      0.01741663 Eh      10.93 kcal/mol
Thermal rotational correction    ...      0.00141627 Eh       0.89 kcal/mol
Thermal translational correction ...      0.00141627 Eh       0.89 kcal/mol
-----------------------------------------------------------------------
Total thermal energy                   -209.66481169 Eh

Rotational constants in cm-1:     0.015797     0.004461     0.003550

                             ****ORCA TERMINATED NORMALLY****
TOTAL RUN TIME: 0 days 0 hours 44 minutes 1 seconds 458 msec
