                         Program Version 6.0.1  -  RELEASE   -
|  1> # input to generate an atomic fitting density for F
|  2> # this file is used internally by ORCA
|  3> #
|  4> # atomic ground state (Mult=2): 1s2 2s2 2p5
|  5> #
|  6> ! ROHF def2-SVP def2/J Conv LeanSCF AODIIS SOSCF NoMulliken NoLoewdin NoMayer NoPrintMOs
|  7>
|  8> %output print[p_atomdensfit] 2 end
|  9>
| 10> %scf
| 11>   guess     HCore
| 12>   maxiter    1000
| 13>   maxdisk  500000
| 14>   diismaxeq     8
| 15>   soscfstart 1e-4
| 16>   lshift  1.000000
| 17>   ignoreconv true
| 18>
| 19>   hftyp        rohf
| 20>   rohf_case    sahf
| 21>   rohf_numop   2
| 22>   rohf_norb[1] 3
| 23>   rohf_nel[1]  5
| 24>
| 25> end
| 26>
| 27> %basis
| 28>   NewECP 9
| 29>     N_core 2
| 30>     lmax f
| 31>     s 2
| 32>       1      22.3504000000    102.5979520000  2
| 33>       2      11.1752000000     19.0496630000  2
| 34>     p 2
| 35>       1      26.4768000000    -15.1439600000  2
| 36>       2      13.2384000000      2.8029210000  2
| 37>     d 0
| 38>     f 1
| 39>       1       1.0000000000      0.0000000000  2
| 40>   end
| 41>   NewGTO 9
| 42>     s 4
| 43>      1       7.0348611514     -0.3342557408
| 44>      2       4.8729322959      0.1806894282
| 45>      3       1.3308783230      0.4995279213
| 46>      4       0.5254697227      0.5859486586
| 47>     s 2
| 48>      1       0.8212660476      0.1239802716
| 49>      2       0.1983411850      0.9087888384
| 50>     p 4
| 51>      1      35.5261000398      0.0301299566
| 52>      2       9.0935705426      0.1500941419
| 53>      3       2.6854132264      0.4227977888
| 54>      4       0.8336783951      0.5804849238
| 55>     p 2
| 56>      1       0.2622797707      0.8651385455
| 57>      2       0.0823962412      0.1864295029
| 58>   end
| 59>   NewAuxGTO 9
| 60>     S 1
| 61>      1 1310.72 1.0
| 62>     S 1
| 63>      1  655.36 1.0
| 64>     S 1
| 65>      1  327.68 1.0
| 66>     S 1
| 67>      1  163.84 1.0
| 68>     S 1
| 69>      1   81.82 1.0
| 70>     S 1
| 71>      1   40.96 1.0
| 72>     S 1
| 73>      1   20.48 1.0
| 74>     S 1
| 75>      1   10.24 1.0
| 76>     S 1
| 77>      1    5.12 1.0
| 78>     S 1
| 79>      1    2.56 1.0
| 80>     S 1
| 81>      1    1.28 1.0
| 82>     S 1
| 83>      1    0.64 1.0
| 84>     S 1
| 85>      1    0.32 1.0
| 86>     S 1
| 87>      1    0.16 1.0
| 88>     S 1
| 89>      1    0.08 1.0
| 90>     S 1
| 91>      1    0.04 1.0
| 92>     S 1
| 93>      1    0.02 1.0
| 94>     S 1
| 95>      1    0.01 1.0
| 96>   end
| 97> end
| 98>
| 99> * xyz 0 2
|100> 9  0.0 0.0 0.0
|101> *
|102>
|103>
|104>                          ****END OF INPUT****

CARTESIAN COORDINATES (ANGSTROEM)
---------------------------------
  F      0.000000    0.000000    0.000000

 Total Charge           Charge          ....    0
 Multiplicity           Mult            ....    2
 Number of Electrons    NEL             ....    7
 Basis Dimension        Dim             ....    8

ORBITAL ENERGIES
----------------

  NO   OCC          E(Eh)            E(eV)
   0   2.0000      -1.582692       -43.0672
   1   1.6667      -0.738424       -20.0935
   2   1.6667      -0.738424       -20.0935
   3   1.6667      -0.738424       -20.0935
   4   0.0000       0.718392        19.5484
   5   0.0000       0.718392        19.5484
   6   0.0000       0.718392        19.5484
   7   0.0000       0.914120        24.8745

FINAL SINGLE POINT ENERGY       -23.919507948654

DIPOLE MOMENT
-------------

Method             : SCF
Type of density    : Electron Density
Multiplicity       :   2
Irrep              :   0
Energy             :   -23.9195079486541360 Eh
Relativity type    :
Basis              : AO
                                X                 Y                 Z
Electronic contribution:      0.000000000       0.000000000       0.000000000
Nuclear contribution   :      0.000000000       0.000000000       0.000000000
                        -----------------------------------------
Total Dipole Moment    :      0.000000000       0.000000000       0.000000000
                        -----------------------------------------
Magnitude (a.u.)       :      0.000000000
Magnitude (Debye)      :      0.000000000

Rotational constants in cm-1:             0.000000             0.000000             0.000000
Rotational constants in MHz :             0.000000             0.000000             0.000000

                             ****ORCA TERMINATED NORMALLY****
TOTAL RUN TIME: 0 days 0 hours 0 minutes 0 seconds 680 msec
