                         Program Version 6.0.1  -  RELEASE   -
|  1> ! wB97X-3c OPT FREQ TightSCF
|  2> %pal
|  3>   nprocs 40
|  4> end
|  5> * xyz 0 1
|  6> C     -3.692350    -1.166087     0.736672
|  7> C     -2.552602    -0.440616     0.069622
|  8> C     -1.322918    -0.518017     0.620987
|  9> C     -0.112810     0.168923     0.035464
| 10> C      1.139685    -0.094411     0.881300
| 11> C      2.358333     0.562185     0.267285
| 12> C      3.058305     0.038645    -0.763261
| 13> C      2.799100    -1.237477    -1.463671
| 14> O      1.866395    -2.018554    -1.143027
| 15> C      2.817003     1.883638     0.826127
| 16> C     -2.804609     0.351767    -1.191336
| 17> H     -4.646636    -1.024682     0.187938
| 18> H     -3.472279    -2.253982     0.776937
| 19> H     -3.826035    -0.784223     1.771017
| 20> H     -1.196012    -1.102923     1.529831
| 21> H      0.046123    -0.195107    -1.001105
| 22> H     -0.297167     1.264744    -0.000750
| 23> H      1.310266    -1.180252     1.032908
| 24> H      0.964321     0.317988     1.898922
| 25> H      3.910783     0.596570    -1.134193
| 26> H      3.444879    -1.511780    -2.287110
| 27> H      2.148766     2.244204     1.635946
| 28> H      3.843183     1.781553     1.238559
| 29> H      2.822761     2.650484     0.022436
| 30> H     -3.870697     0.304440    -1.495979
| 31> H     -2.542860     1.418187    -1.027897
| 32> H     -2.192928    -0.055216    -2.023621
| 33> *
| 34>
| 35>                          ****END OF INPUT****
 Total Charge           Charge          ....    0
 Multiplicity           Mult            ....    1
 Number of Electrons    NEL             ....   62
Dispersion correction           -0.028550672
FINAL SINGLE POINT ENERGY       -82.623955455495
Dispersion correction             ... done (  0.1 sec)
Dispersion correction           -0.028763487
FINAL SINGLE POINT ENERGY       -82.633624422465
Dispersion correction             ... done (  0.1 sec)
Dispersion correction           -0.028730816
FINAL SINGLE POINT ENERGY       -82.634753407443
Dispersion correction             ... done (  0.1 sec)
FINAL SINGLE POINT ENERGY       -82.633689780376
FINAL SINGLE POINT ENERGY       -82.635680371307
FINAL SINGLE POINT ENERGY       -82.635986398881
FINAL SINGLE POINT ENERGY       -82.636791539196
FINAL SINGLE POINT ENERGY       -82.637340485792
FINAL SINGLE POINT ENERGY       -82.638106287913
FINAL SINGLE POINT ENERGY       -82.638524396624
FINAL SINGLE POINT ENERGY       -82.645171991043
FINAL SINGLE POINT ENERGY       -82.645373521541
FINAL SINGLE POINT ENERGY       -82.645505769848
FINAL SINGLE POINT ENERGY       -82.645553139571
FINAL SINGLE POINT ENERGY       -82.645589254355
FINAL SINGLE POINT ENERGY       -82.645613396252
FINAL SINGLE POINT ENERGY       -82.645635952868
Dispersion correction             ... done (  0.1 sec)
Dispersion correction           -0.028900609
FINAL SINGLE POINT ENERGY       -82.645638934702
Dispersion correction             ... done (  0.1 sec)
Dispersion correction           -0.028898922
FINAL SINGLE POINT ENERGY       -82.645639729126
Dispersion correction             ... done (  0.1 sec)
                    ***********************HURRAY********************

CARTESIAN COORDINATES (ANGSTROEM)
---------------------------------
  C     -3.589618   -1.247449    0.700909
  C     -2.470395   -0.417104    0.151363
  C     -1.258351   -0.935477   -0.021783
  C     -0.033986   -0.260982   -0.547852
  C      0.991956   -0.024570    0.563792
  C      2.243571    0.601281    0.035049
  C      3.263360   -0.086455   -0.496481
  C      3.353406   -1.541497   -0.615494
  O      2.465420   -2.335890   -0.410814
  C      2.298343    2.090701    0.109785
  C     -2.850642    0.994563   -0.170930
  H     -3.983772   -0.808782    1.619232
  H     -4.418633   -1.296340   -0.007316
  H     -3.267773   -2.263404    0.918487
  H     -1.109962   -1.972389    0.265095
  H      0.425978   -0.900887   -1.301275
  H     -0.275461    0.681947   -1.036494
  H      1.215993   -0.977876    1.036453
  H      0.552112    0.633212    1.315061
  H      4.131234    0.455671   -0.852996
  H      4.346685   -1.911097   -0.928243
  H      1.413309    2.522142   -0.359507
  H      2.287151    2.409317    1.152785
  H      3.183517    2.499043   -0.371193
  H     -3.633044    1.013855   -0.931631
  H     -3.261410    1.485013    0.713152
  H     -2.018987    1.593455   -0.529152

 Multiplicity           Mult            ....    1
 Number of Electrons    NEL             ....   62
 Basis Dimension        Dim             ....  223

ORBITAL ENERGIES
----------------

  NO   OCC          E(Eh)            E(eV)
   0   2.0000      -1.166928       -31.7537
   1   2.0000      -0.983855       -26.7720
   2   2.0000      -0.954672       -25.9780
   3   2.0000      -0.899529       -24.4774
   4   2.0000      -0.860977       -23.4284
   5   2.0000      -0.827100       -22.5065
   6   2.0000      -0.818900       -22.2834
   7   2.0000      -0.754589       -20.5334
   8   2.0000      -0.730126       -19.8677
   9   2.0000      -0.647464       -17.6184
  10   2.0000      -0.630316       -17.1518
  11   2.0000      -0.618431       -16.8284
  12   2.0000      -0.590595       -16.0709
  13   2.0000      -0.573041       -15.5932
  14   2.0000      -0.560610       -15.2550
  15   2.0000      -0.554450       -15.0874
  16   2.0000      -0.546028       -14.8582
  17   2.0000      -0.537899       -14.6370
  18   2.0000      -0.513867       -13.9830
  19   2.0000      -0.506763       -13.7897
  20   2.0000      -0.505257       -13.7488
  21   2.0000      -0.493566       -13.4306
  22   2.0000      -0.486638       -13.2421
  23   2.0000      -0.482578       -13.1316
  24   2.0000      -0.475443       -12.9375
  25   2.0000      -0.459880       -12.5140
  26   2.0000      -0.441803       -12.0221
  27   2.0000      -0.425671       -11.5831
  28   2.0000      -0.365595        -9.9484
  29   2.0000      -0.360194        -9.8014
  30   2.0000      -0.330425        -8.9913
  31   0.0000       0.018312         0.4983
  32   0.0000       0.079246         2.1564
  33   0.0000       0.090979         2.4757
  34   0.0000       0.099026         2.6946
  35   0.0000       0.101150         2.7524

MULLIKEN ATOMIC CHARGES
-----------------------
   0 C :   -0.049129
   1 C :   -0.072135
   2 C :   -0.022407
   3 C :   -0.049381
   4 C :   -0.033374
   5 C :   -0.059659
   6 C :   -0.036752
   7 C :    0.177523
   8 O :   -0.306926
   9 C :   -0.031600
  10 C :   -0.048426
  11 H :    0.033881
  12 H :    0.034915
  13 H :    0.026843
  14 H :    0.019406
  15 H :    0.061364
  16 H :    0.013265
  17 H :    0.066773
  18 H :    0.030439
  19 H :    0.021691
  20 H :    0.005282
  21 H :    0.040923
  22 H :    0.054275
  23 H :    0.031684
  24 H :    0.041320
  25 H :    0.036802
  26 H :    0.013400
Sum of atomic charges:   -0.0000000

LOEWDIN ATOMIC CHARGES
----------------------
   0 C :   -0.107498
   1 C :   -0.056050
   2 C :   -0.050728
   3 C :   -0.075356
   4 C :   -0.065133
   5 C :    0.017452
   6 C :   -0.089165
   7 C :   -0.008346
   8 O :   -0.133959
   9 C :   -0.095323
  10 C :   -0.106987
  11 H :    0.047012
  12 H :    0.048002
  13 H :    0.050090
  14 H :    0.043281
  15 H :    0.054712
  16 H :    0.036376
  17 H :    0.054679
  18 H :    0.048681
  19 H :    0.042579
  20 H :    0.038899
  21 H :    0.055298
  22 H :    0.057838
  23 H :    0.052203
  24 H :    0.050641
  25 H :    0.049658
  26 H :    0.041145

  Mayer bond orders larger than 0.100000
B(  0-C ,  1-C ) :   1.0307 B(  0-C , 11-H ) :   0.9800 B(  0-C , 12-H ) :   0.9802
B(  0-C , 13-H ) :   0.9920 B(  1-C ,  2-C ) :   1.8864 B(  1-C , 10-C ) :   1.0346
B(  2-C ,  3-C ) :   1.0318 B(  2-C , 14-H ) :   0.9925 B(  3-C ,  4-C ) :   0.9400
B(  3-C , 15-H ) :   0.9851 B(  3-C , 16-H ) :   0.9955 B(  4-C ,  5-C ) :   1.0412
B(  4-C , 17-H ) :   0.9790 B(  4-C , 18-H ) :   0.9870 B(  5-C ,  6-C ) :   1.7902
B(  5-C ,  9-C ) :   1.0421 B(  6-C ,  7-C ) :   1.1251 B(  6-C , 19-H ) :   0.9829
B(  7-C ,  8-O ) :   1.8813 B(  7-C , 20-H ) :   1.0071 B(  9-C , 21-H ) :   0.9730
B(  9-C , 22-H ) :   0.9702 B(  9-C , 23-H ) :   0.9898 B( 10-C , 24-H ) :   0.9773
B( 10-C , 25-H ) :   0.9771 B( 10-C , 26-H ) :   0.9921

Dispersion correction           -0.028898486
FINAL SINGLE POINT ENERGY       -82.645639841074

DIPOLE MOMENT
-------------

Method             : SCF
Type of density    : Electron Density
Multiplicity       :   1
Irrep              :   0
Energy             :   -82.6167413547563569 Eh
Relativity type    :
Basis              : AO
                                X                 Y                 Z
Electronic contribution:     10.744902123      -5.935242608      -1.608638010
Nuclear contribution   :    -10.600364755       7.193305951       1.674280186
                        -----------------------------------------
Total Dipole Moment    :      0.144537368       1.258063343       0.065642176
                        -----------------------------------------
Magnitude (a.u.)       :      1.268039164
Magnitude (Debye)      :      3.223099411

VIBRATIONAL FREQUENCIES
-----------------------

Scaling factor for frequencies =  1.000000000  (already applied!)

     0:       0.00 cm**-1
     1:       0.00 cm**-1
     2:       0.00 cm**-1
     3:       0.00 cm**-1
     4:       0.00 cm**-1
     5:       0.00 cm**-1
     6:      22.80 cm**-1
     7:      36.09 cm**-1
     8:      81.96 cm**-1
     9:      87.54 cm**-1
    10:     117.66 cm**-1
    11:     133.60 cm**-1
    12:     179.93 cm**-1
    13:     181.32 cm**-1
    14:     201.60 cm**-1
    15:     244.28 cm**-1
    16:     262.12 cm**-1
    17:     315.39 cm**-1
    18:     338.99 cm**-1
    19:     391.41 cm**-1
    20:     413.87 cm**-1
    21:     430.11 cm**-1
    22:     489.34 cm**-1
    23:     533.52 cm**-1
    24:     614.31 cm**-1
    25:     758.47 cm**-1
    26:     783.74 cm**-1
    27:     832.08 cm**-1
    28:     847.82 cm**-1
    29:     875.93 cm**-1
    30:     907.38 cm**-1
    31:     985.80 cm**-1
    32:    1009.23 cm**-1
    33:    1022.07 cm**-1
    34:    1035.71 cm**-1
    35:    1046.39 cm**-1
    36:    1058.77 cm**-1
    37:    1071.14 cm**-1
    38:    1094.28 cm**-1
    39:    1118.36 cm**-1
    40:    1128.81 cm**-1
    41:    1161.68 cm**-1
    42:    1189.91 cm**-1
    43:    1257.86 cm**-1
    44:    1297.06 cm**-1
    45:    1315.84 cm**-1
    46:    1354.00 cm**-1
    47:    1390.05 cm**-1
    48:    1412.38 cm**-1
    49:    1425.96 cm**-1
    50:    1444.21 cm**-1
    51:    1450.45 cm**-1
    52:    1458.33 cm**-1
    53:    1468.44 cm**-1
    54:    1502.37 cm**-1
    55:    1506.67 cm**-1
    56:    1507.65 cm**-1
    57:    1512.28 cm**-1
    58:    1522.41 cm**-1
    59:    1523.93 cm**-1
    60:    1528.45 cm**-1
    61:    1534.42 cm**-1
    62:    1732.19 cm**-1
    63:    1809.17 cm**-1
    64:    1842.26 cm**-1
    65:    3002.67 cm**-1
    66:    3093.56 cm**-1
    67:    3099.26 cm**-1
    68:    3103.00 cm**-1
    69:    3113.68 cm**-1
    70:    3125.46 cm**-1
    71:    3168.54 cm**-1
    72:    3169.72 cm**-1
    73:    3175.25 cm**-1
    74:    3184.17 cm**-1
    75:    3197.22 cm**-1
    76:    3204.58 cm**-1
    77:    3209.71 cm**-1
    78:    3218.06 cm**-1
    79:    3225.16 cm**-1
    80:    3232.60 cm**-1

IR SPECTRUM
-----------

 Mode   freq       eps      Int      T**2         TX        TY        TZ
       cm**-1   L/(mol*cm) km/mol    a.u.
----------------------------------------------------------------------------
  6:     22.80   0.000014    0.07  0.000187  (-0.012008  0.005819  0.003003)
  7:     36.09   0.000206    1.04  0.001783  ( 0.039395 -0.012251 -0.009004)
  8:     81.96   0.000207    1.05  0.000789  ( 0.005562  0.000929 -0.027523)
  9:     87.54   0.000765    3.87  0.002728  ( 0.024134 -0.003770  0.046165)
 10:    117.66   0.000818    4.13  0.002170  ( 0.030294 -0.018415  0.030219)
 11:    133.60   0.000209    1.06  0.000488  (-0.013927  0.006167 -0.016012)
 12:    179.93   0.000748    3.78  0.001298  ( 0.019281 -0.003358  0.030242)
 13:    181.32   0.000048    0.24  0.000082  (-0.004912  0.002266 -0.007291)
 14:    201.60   0.000118    0.60  0.000182  ( 0.003702  0.003133  0.012602)
 15:    244.28   0.000987    4.99  0.001260  ( 0.027024 -0.020667  0.010146)
 16:    262.12   0.001262    6.38  0.001502  (-0.011905  0.024159  0.027876)
 17:    315.39   0.000053    0.27  0.000052  ( 0.006905 -0.000661 -0.002030)
 18:    338.99   0.000392    1.98  0.000361  ( 0.012231 -0.005419  0.013474)
 19:    391.41   0.000356    1.80  0.000284  ( 0.007947 -0.014473 -0.003303)
 20:    413.87   0.000262    1.32  0.000197  (-0.000831  0.012737 -0.005868)
 21:    430.11   0.000891    4.50  0.000646  (-0.014733 -0.009267 -0.018534)
 22:    489.34   0.000573    2.90  0.000365  (-0.003231  0.008644  0.016741)
 23:    533.52   0.000194    0.98  0.000114  (-0.006309  0.008236  0.002461)
 24:    614.31   0.000866    4.38  0.000440  (-0.014888 -0.004443 -0.014095)
 25:    758.47   0.009697   49.01  0.003990  ( 0.033202 -0.051428 -0.015577)
 26:    783.74   0.000428    2.16  0.000170  (-0.008273  0.009924  0.001855)
 27:    832.08   0.000067    0.34  0.000025  (-0.001663  0.004601 -0.001067)
 28:    847.82   0.003567   18.02  0.001313  ( 0.021074 -0.007883  0.028399)
 29:    875.93   0.003787   19.14  0.001349  (-0.007550 -0.018503 -0.030819)
 30:    907.38   0.000527    2.67  0.000181  ( 0.000047  0.005527  0.012282)
 31:    985.80   0.000129    0.65  0.000041  ( 0.004302  0.003629 -0.003030)
 32:   1009.23   0.004911   24.82  0.001519  (-0.020297  0.030771  0.012645)
 33:   1022.07   0.000016    0.08  0.000005  ( 0.001786  0.001321  0.000016)
 34:   1035.71   0.000796    4.02  0.000240  ( 0.005146  0.006090  0.013272)
 35:   1046.39   0.000569    2.87  0.000170  ( 0.000856  0.001802  0.012871)
 36:   1058.77   0.000343    1.73  0.000101  ( 0.009324 -0.003165  0.002000)
 37:   1071.14   0.000821    4.15  0.000239  ( 0.002507  0.014985 -0.002869)
 38:   1094.28   0.000826    4.17  0.000235  (-0.010458  0.002961 -0.010831)
 39:   1118.36   0.004907   24.80  0.001369  ( 0.025935 -0.026097 -0.003937)
 40:   1128.81   0.000068    0.34  0.000019  (-0.001961 -0.001794 -0.003432)
 41:   1161.68   0.001656    8.37  0.000445  ( 0.020855  0.003078 -0.000568)
 42:   1189.91   0.000479    2.42  0.000126  (-0.009266  0.001759  0.006062)
 43:   1257.86   0.001598    8.08  0.000396  ( 0.017968 -0.006322 -0.005803)
 44:   1297.06   0.000617    3.12  0.000148  (-0.002439  0.011922 -0.000631)
 45:   1315.84   0.000507    2.56  0.000120  ( 0.009496 -0.005383  0.001031)
 46:   1354.00   0.001201    6.07  0.000277  ( 0.007496 -0.013876 -0.005295)
 47:   1390.05   0.000578    2.92  0.000130  ( 0.009014 -0.006921  0.000808)
 48:   1412.38   0.001855    9.37  0.000410  (-0.019193 -0.006101  0.002039)
 49:   1425.96   0.002063   10.43  0.000451  (-0.021132 -0.000877 -0.002035)
 50:   1444.21   0.002131   10.77  0.000460  (-0.017194 -0.012832  0.000457)
 51:   1450.45   0.000942    4.76  0.000203  ( 0.006092  0.010735 -0.007089)
 52:   1458.33   0.003240   16.37  0.000693  (-0.006601  0.025034 -0.004793)
 53:   1468.44   0.000636    3.22  0.000135  ( 0.005196 -0.008665 -0.005756)
 54:   1502.37   0.000208    1.05  0.000043  (-0.001889 -0.003411 -0.005284)
 55:   1506.67   0.002563   12.95  0.000531  ( 0.022214  0.006112 -0.000105)
 56:   1507.65   0.000673    3.40  0.000139  ( 0.002097 -0.006980  0.009287)
 57:   1512.28   0.003433   17.35  0.000708  ( 0.016099 -0.012693 -0.016972)
 58:   1522.41   0.005213   26.34  0.001069  ( 0.005412  0.005908  0.031691)
 59:   1523.93   0.000033    0.17  0.000007  (-0.000126  0.000381 -0.002578)
 60:   1528.45   0.003862   19.51  0.000788  ( 0.014574 -0.023376  0.005436)
 61:   1534.42   0.002398   12.12  0.000488  ( 0.005058  0.013566 -0.016675)
 62:   1732.19   0.055853  282.26  0.010062  ( 0.038696 -0.090404 -0.019798)
 63:   1809.17   0.000856    4.32  0.000148  (-0.011812  0.002822  0.000353)
 64:   1842.26   0.030865  155.98  0.005228  (-0.043932 -0.057034  0.006734)
 65:   3002.67   0.031348  158.42  0.003258  (-0.050113  0.022478  0.015538)
 66:   3093.56   0.006647   33.59  0.000671  (-0.020466 -0.013394  0.008503)
 67:   3099.26   0.008444   42.67  0.000850  (-0.024726  0.015335  0.001927)
 68:   3103.00   0.002161   10.92  0.000217  ( 0.000060 -0.014734  0.000484)
 69:   3113.68   0.003651   18.45  0.000366  (-0.007983  0.011970  0.012606)
 70:   3125.46   0.005324   26.91  0.000532  ( 0.001766  0.005565 -0.022305)
 71:   3168.54   0.000062    0.31  0.000006  (-0.000840 -0.001149 -0.002015)
 72:   3169.72   0.004350   21.98  0.000428  (-0.004731 -0.005389 -0.019413)
 73:   3175.25   0.000695    3.51  0.000068  (-0.004022  0.007137  0.001074)
 74:   3184.17   0.000827    4.18  0.000081  ( 0.004909 -0.001501  0.007399)
 75:   3197.22   0.000513    2.59  0.000050  (-0.004420  0.005521 -0.000102)
 76:   3204.58   0.000546    2.76  0.000053  (-0.004715 -0.005121  0.002165)
 77:   3209.71   0.004530   22.89  0.000440  (-0.005286  0.019883 -0.004144)
 78:   3218.06   0.001643    8.30  0.000159  ( 0.010612  0.005343 -0.004259)
 79:   3225.16   0.003706   18.73  0.000359  (-0.012911 -0.012144  0.006669)
 80:   3232.60   0.003135   15.84  0.000303  (-0.015027 -0.007101  0.005142)

--------------------------
THERMOCHEMISTRY AT 298.15K
--------------------------

Temperature         ...   298.15 K
Pressure            ...     1.00 atm
Total Mass          ...   152.24 AMU
Quasi RRHO          ...     True
Cut-Off Frequency   ...     1.00 cm^-1

Throughout the following assumptions are being made:
  (1) The electronic state is orbitally nondegenerate
  (2) There are no thermally accessible electronically excited states
  (3) Hindered rotations indicated by low frequency modes are not
      treated as such but are treated as vibrations and this may
      cause some error
  (4) All equations used are the standard statistical mechanics
      equations for an ideal gas
  (5) All vibrations are strictly harmonic

freq.      22.80  E(vib)   ...       0.56
freq.      36.09  E(vib)   ...       0.54
freq.      81.96  E(vib)   ...       0.48
freq.      87.54  E(vib)   ...       0.48
freq.     117.66  E(vib)   ...       0.44
freq.     133.60  E(vib)   ...       0.42
freq.     179.93  E(vib)   ...       0.37
freq.     181.32  E(vib)   ...       0.37
freq.     201.60  E(vib)   ...       0.35
freq.     244.28  E(vib)   ...       0.31
freq.     262.12  E(vib)   ...       0.29
freq.     315.39  E(vib)   ...       0.25
freq.     338.99  E(vib)   ...       0.23
freq.     391.41  E(vib)   ...       0.20
freq.     413.87  E(vib)   ...       0.19
freq.     430.11  E(vib)   ...       0.18
freq.     489.34  E(vib)   ...       0.15
freq.     533.52  E(vib)   ...       0.13
freq.     614.31  E(vib)   ...       0.10
freq.     758.47  E(vib)   ...       0.06
freq.     783.74  E(vib)   ...       0.05
freq.     832.08  E(vib)   ...       0.04
freq.     847.82  E(vib)   ...       0.04
freq.     875.93  E(vib)   ...       0.04
freq.     907.38  E(vib)   ...       0.03
freq.     985.80  E(vib)   ...       0.02
freq.    1009.23  E(vib)   ...       0.02
freq.    1022.07  E(vib)   ...       0.02
freq.    1035.71  E(vib)   ...       0.02
freq.    1046.39  E(vib)   ...       0.02
freq.    1058.77  E(vib)   ...       0.02
freq.    1071.14  E(vib)   ...       0.02
freq.    1094.28  E(vib)   ...       0.02
freq.    1118.36  E(vib)   ...       0.01
freq.    1128.81  E(vib)   ...       0.01
freq.    1161.68  E(vib)   ...       0.01
freq.    1189.91  E(vib)   ...       0.01
freq.    1257.86  E(vib)   ...       0.01
freq.    1297.06  E(vib)   ...       0.01
freq.    1315.84  E(vib)   ...       0.01
freq.    1354.00  E(vib)   ...       0.01
freq.    1390.05  E(vib)   ...       0.00
freq.    1412.38  E(vib)   ...       0.00
freq.    1425.96  E(vib)   ...       0.00
freq.    1444.21  E(vib)   ...       0.00
freq.    1450.45  E(vib)   ...       0.00
freq.    1458.33  E(vib)   ...       0.00
freq.    1468.44  E(vib)   ...       0.00
freq.    1502.37  E(vib)   ...       0.00
freq.    1506.67  E(vib)   ...       0.00
freq.    1507.65  E(vib)   ...       0.00
freq.    1512.28  E(vib)   ...       0.00
freq.    1522.41  E(vib)   ...       0.00
freq.    1523.93  E(vib)   ...       0.00
freq.    1528.45  E(vib)   ...       0.00
freq.    1534.42  E(vib)   ...       0.00
freq.    1732.19  E(vib)   ...       0.00
freq.    1809.17  E(vib)   ...       0.00
freq.    1842.26  E(vib)   ...       0.00
freq.    3002.67  E(vib)   ...       0.00
freq.    3093.56  E(vib)   ...       0.00
freq.    3099.26  E(vib)   ...       0.00
freq.    3103.00  E(vib)   ...       0.00
freq.    3113.68  E(vib)   ...       0.00
freq.    3125.46  E(vib)   ...       0.00
freq.    3168.54  E(vib)   ...       0.00
freq.    3169.72  E(vib)   ...       0.00
freq.    3175.25  E(vib)   ...       0.00
freq.    3184.17  E(vib)   ...       0.00
freq.    3197.22  E(vib)   ...       0.00
freq.    3204.58  E(vib)   ...       0.00
freq.    3209.71  E(vib)   ...       0.00
freq.    3218.06  E(vib)   ...       0.00
freq.    3225.16  E(vib)   ...       0.00
freq.    3232.60  E(vib)   ...       0.00

------------
INNER ENERGY
------------

The inner energy is: U= E(el) + E(ZPE) + E(vib) + E(rot) + E(trans)
    E(el)   - is the total energy from the electronic structure calculation
              = E(kin-el) + E(nuc-el) + E(el-el) + E(nuc-nuc)
    E(ZPE)  - the the zero temperature vibrational energy from the frequency calculation
    E(vib)  - the the finite temperature correction to E(ZPE) due to population
              of excited vibrational states
    E(rot)  - is the rotational thermal energy
    E(trans)- is the translational thermal energy

Summary of contributions to the inner energy U:
Electronic energy                ...    -82.64563984 Eh
Zero point energy                ...      0.24222039 Eh     152.00 kcal/mol
Thermal vibrational correction   ...      0.01050894 Eh       6.59 kcal/mol
Thermal rotational correction    ...      0.00141627 Eh       0.89 kcal/mol
Thermal translational correction ...      0.00141627 Eh       0.89 kcal/mol
-----------------------------------------------------------------------
Total thermal energy                    -82.39007797 Eh

Summary of corrections to the electronic energy:
(perhaps to be used in another calculation)
Total thermal correction                  0.01334148 Eh       8.37 kcal/mol
Non-thermal (ZPE) correction              0.24222039 Eh     152.00 kcal/mol
-----------------------------------------------------------------------
Total correction                          0.25556187 Eh     160.37 kcal/mol

--------
ENTHALPY
--------

The enthalpy is H = U + kB*T
                kB is Boltzmann's constant
Total thermal energy              ...    -82.39007797 Eh
Thermal Enthalpy correction       ...      0.00094421 Eh       0.59 kcal/mol
-----------------------------------------------------------------------
Total Enthalpy                    ...    -82.38913376 Eh

Note: Only C1 symmetry has been detected, increase convergence thresholds
      if your molecule has a higher symmetry. Symmetry factor of 1.0 is
      used for the rotational entropy correction.

Note: Rotational entropy computed according to Herzberg
Infrared and Raman Spectra, Chapter V,1, Van Nostrand Reinhold, 1945
Point Group:  C1, Symmetry Number:   1
Rotational constants in cm-1:     0.061107     0.017081     0.013986

Vibrational entropy computed according to the QRRHO of S. Grimme
Chem.Eur.J. 2012 18 9955 using a reference frequency of 100.0 cm-1

-------
ENTROPY
-------

The entropy contributions are T*S = T*(S(el)+S(vib)+S(rot)+S(trans))
     S(el)   - electronic entropy
     S(vib)  - vibrational entropy
     S(rot)  - rotational entropy
     S(trans)- translational entropy

                             ****ORCA TERMINATED NORMALLY****
TOTAL RUN TIME: 0 days 0 hours 45 minutes 46 seconds 49 msec
