                         Program Version 6.0.1  -  RELEASE   -
|  1> ! wB97X-3c OPT FREQ TightSCF
|  2> %pal
|  3>   nprocs 40
|  4> end
|  5> * xyz 0 1
|  6> C     -1.892010     2.271061    -2.096567
|  7> C     -0.761531     1.400136    -1.524789
|  8> C      0.187395     2.246392    -0.659480
|  9> C      1.643928     1.758294    -0.686931
| 10> C      1.933863     0.238144    -0.814033
| 11> C      0.946255    -0.916366    -0.532881
| 12> C      2.028363    -0.561264     0.500516
| 13> C      1.634742     0.129307     1.820081
| 14> C      3.204303    -1.541519     0.580577
| 15> C     -0.500545    -0.686142    -0.151781
| 16> C     -1.283053     0.255029    -0.681091
| 17> C     -2.725127     0.039941    -0.340133
| 18> C     -2.730185    -1.175185     0.582581
| 19> C     -1.319335    -1.768529     0.487864
| 20> C     -0.785798    -2.205896     1.853743
| 21> H     -2.581377     1.655192    -2.712060
| 22> H     -1.468055     3.058522    -2.755753
| 23> H     -2.464779     2.764172    -1.282190
| 24> H     -0.212639     0.982623    -2.398353
| 25> H      0.192469     3.300741    -1.016383
| 26> H     -0.180525     2.297661     0.388276
| 27> H      2.194068     2.189137     0.175264
| 28> H      2.114789     2.225983    -1.579164
| 29> H      2.731494    -0.025870    -1.542534
| 30> H      1.147586    -1.825069    -1.139789
| 31> H      2.433143     0.840233     2.117630
| 32> H      0.675120     0.676094     1.759501
| 33> H      1.550012    -0.628963     2.624919
| 34> H      4.107757    -1.006156     0.940334
| 35> H      3.436959    -2.002343    -0.403557
| 36> H      2.960261    -2.354125     1.296397
| 37> H     -3.144576     0.928241     0.179219
| 38> H     -3.304714    -0.175812    -1.263280
| 39> H     -3.494929    -1.916304     0.262613
| 40> H     -2.965672    -0.845815     1.619535
| 41> H     -1.336219    -2.647543    -0.194517
| 42> H     -1.442412    -2.996335     2.275048
| 43> H     -0.765135    -1.350603     2.561598
| 44> H      0.236110    -2.627062     1.749574
| 45> *
| 46>
| 47>                          ****END OF INPUT****
 Total Charge           Charge          ....    0
 Multiplicity           Mult            ....    1
 Number of Electrons    NEL             ....   84
Dispersion correction           -0.053028487
FINAL SINGLE POINT ENERGY       -99.908242421093
Dispersion correction             ... done (  0.1 sec)
Dispersion correction           -0.053368752
FINAL SINGLE POINT ENERGY       -99.924241814683
Dispersion correction             ... done (  0.1 sec)
Dispersion correction           -0.053504336
FINAL SINGLE POINT ENERGY       -99.927805564999
Dispersion correction             ... done (  0.1 sec)
FINAL SINGLE POINT ENERGY       -99.929114740162
FINAL SINGLE POINT ENERGY       -99.929953737734
FINAL SINGLE POINT ENERGY       -99.930512108138
FINAL SINGLE POINT ENERGY       -99.930930775827
FINAL SINGLE POINT ENERGY       -99.931134778911
FINAL SINGLE POINT ENERGY       -99.931198043303
FINAL SINGLE POINT ENERGY       -99.931220247545
FINAL SINGLE POINT ENERGY       -99.931229093547
Dispersion correction             ... done (  0.1 sec)
Dispersion correction           -0.053424848
FINAL SINGLE POINT ENERGY       -99.931233666134
Dispersion correction             ... done (  0.1 sec)
Dispersion correction           -0.053421170
FINAL SINGLE POINT ENERGY       -99.931235788912
Dispersion correction             ... done (  0.1 sec)
                    ***********************HURRAY********************

CARTESIAN COORDINATES (ANGSTROEM)
---------------------------------
  C     -1.951206    2.476115   -1.710595
  C     -0.816385    1.489735   -1.472487
  C      0.354377    2.199990   -0.795358
  C      1.715908    1.588889   -1.076364
  C      1.977572    0.136299   -0.753810
  C      0.966112   -0.919370   -0.421062
  C      1.970892   -0.469566    0.615268
  C      1.518484    0.342988    1.799311
  C      3.094171   -1.418628    0.941984
  C     -0.486217   -0.722277   -0.267007
  C     -1.260388    0.270513   -0.703143
  C     -2.713767   -0.033263   -0.437041
  C     -2.661320   -1.183464    0.560832
  C     -1.302825   -1.843406    0.338992
  C     -0.722982   -2.474087    1.590181
  H     -2.807579    2.007867   -2.192944
  H     -1.612810    3.288420   -2.352948
  H     -2.294236    2.917880   -0.773901
  H     -0.471235    1.149042   -2.455674
  H      0.392959    3.228810   -1.161403
  H      0.159093    2.273297    0.274210
  H      2.480553    2.192281   -0.579094
  H      1.900512    1.709920   -2.147062
  H      2.787118   -0.246673   -1.366066
  H      1.189721   -1.898215   -0.837205
  H      2.218060    1.155038    2.005797
  H      0.531037    0.771160    1.654833
  H      1.474597   -0.284581    2.690013
  H      3.963509   -0.877250    1.320095
  H      3.409472   -1.981286    0.063817
  H      2.791447   -2.134315    1.708455
  H     -3.272057    0.820844   -0.055279
  H     -3.206126   -0.332124   -1.368513
  H     -3.494556   -1.878671    0.463098
  H     -2.691115   -0.780099    1.575377
  H     -1.396382   -2.629967   -0.421565
  H     -1.384271   -3.254528    1.967979
  H     -0.599654   -1.730201    2.377768
  H      0.249515   -2.927117    1.400515

 Multiplicity           Mult            ....    1
 Number of Electrons    NEL             ....   84
 Basis Dimension        Dim             ....  315

ORBITAL ENERGIES
----------------

  NO   OCC          E(Eh)            E(eV)
   0   2.0000      -1.024755       -27.8850
   1   2.0000      -0.987471       -26.8705
   2   2.0000      -0.946450       -25.7542
   3   2.0000      -0.887413       -24.1477
   4   2.0000      -0.870150       -23.6780
   5   2.0000      -0.865894       -23.5622
   6   2.0000      -0.836883       -22.7727
   7   2.0000      -0.818392       -22.2696
   8   2.0000      -0.779017       -21.1981
   9   2.0000      -0.770198       -20.9581
  10   2.0000      -0.734912       -19.9980
  11   2.0000      -0.694106       -18.8876
  12   2.0000      -0.677642       -18.4396
  13   2.0000      -0.645581       -17.5672
  14   2.0000      -0.612507       -16.6672
  15   2.0000      -0.605486       -16.4761
  16   2.0000      -0.590876       -16.0786
  17   2.0000      -0.580595       -15.7988
  18   2.0000      -0.557654       -15.1745
  19   2.0000      -0.546664       -14.8755
  20   2.0000      -0.537589       -14.6285
  21   2.0000      -0.532969       -14.5028
  22   2.0000      -0.530077       -14.4241
  23   2.0000      -0.520011       -14.1502
  24   2.0000      -0.510740       -13.8979
  25   2.0000      -0.499886       -13.6026
  26   2.0000      -0.492009       -13.3882
  27   2.0000      -0.489366       -13.3163
  28   2.0000      -0.476375       -12.9628
  29   2.0000      -0.469315       -12.7707
  30   2.0000      -0.463715       -12.6183
  31   2.0000      -0.452124       -12.3029
  32   2.0000      -0.443887       -12.0788
  33   2.0000      -0.440950       -11.9989
  34   2.0000      -0.435762       -11.8577
  35   2.0000      -0.425883       -11.5889
  36   2.0000      -0.424139       -11.5414
  37   2.0000      -0.421313       -11.4645
  38   2.0000      -0.404013       -10.9937
  39   2.0000      -0.370766       -10.0890
  40   2.0000      -0.358056        -9.7432
  41   2.0000      -0.306593        -8.3428
  42   0.0000       0.086459         2.3527
  43   0.0000       0.088026         2.3953
  44   0.0000       0.094305         2.5662
  45   0.0000       0.096741         2.6325
  46   0.0000       0.112369         3.0577

MULLIKEN ATOMIC CHARGES
-----------------------
   0 C :   -0.044382
   1 C :   -0.092749
   2 C :   -0.021891
   3 C :   -0.035701
   4 C :   -0.008531
   5 C :   -0.074227
   6 C :   -0.101156
   7 C :   -0.003687
   8 C :   -0.021761
   9 C :   -0.065585
  10 C :   -0.001125
  11 C :   -0.058081
  12 C :   -0.014072
  13 C :   -0.089910
  14 C :   -0.024353
  15 H :    0.027503
  16 H :    0.029490
  17 H :    0.025533
  18 H :    0.042561
  19 H :    0.023460
  20 H :    0.026360
  21 H :    0.030334
  22 H :    0.027793
  23 H :    0.026549
  24 H :    0.029308
  25 H :    0.028716
  26 H :    0.021677
  27 H :    0.021781
  28 H :    0.028893
  29 H :    0.021507
  30 H :    0.019873
  31 H :    0.035719
  32 H :    0.036955
  33 H :    0.030474
  34 H :    0.023365
  35 H :    0.031431
  36 H :    0.029583
  37 H :    0.016679
  38 H :    0.021668
Sum of atomic charges:   -0.0000000

LOEWDIN ATOMIC CHARGES
----------------------
   0 C :   -0.109398
   1 C :   -0.070300
   2 C :   -0.072139
   3 C :   -0.081941
   4 C :   -0.047958
   5 C :   -0.051194
   6 C :   -0.064473
   7 C :   -0.098365
   8 C :   -0.104640
   9 C :   -0.030458
  10 C :   -0.018047
  11 C :   -0.076837
  12 C :   -0.061891
  13 C :   -0.066117
  14 C :   -0.105972
  15 H :    0.043675
  16 H :    0.043683
  17 H :    0.042770
  18 H :    0.050345
  19 H :    0.047721
  20 H :    0.037974
  21 H :    0.048856
  22 H :    0.049813
  23 H :    0.047656
  24 H :    0.049004
  25 H :    0.044397
  26 H :    0.038199
  27 H :    0.044432
  28 H :    0.046230
  29 H :    0.045001
  30 H :    0.042255
  31 H :    0.042006
  32 H :    0.043146
  33 H :    0.038458
  34 H :    0.043539
  35 H :    0.044241
  36 H :    0.044177
  37 H :    0.040633
  38 H :    0.041520

  Mayer bond orders larger than 0.100000
B(  0-C ,  1-C ) :   1.0088 B(  0-C , 15-H ) :   0.9928 B(  0-C , 16-H ) :   0.9949
B(  0-C , 17-H ) :   0.9904 B(  1-C ,  2-C ) :   0.9614 B(  1-C , 10-C ) :   1.0112
B(  1-C , 18-H ) :   0.9793 B(  2-C ,  3-C ) :   0.9953 B(  2-C , 19-H ) :   0.9985
B(  2-C , 20-H ) :   0.9934 B(  3-C ,  4-C ) :   1.0107 B(  3-C , 21-H ) :   0.9917
B(  3-C , 22-H ) :   0.9933 B(  4-C ,  5-C ) :   0.9507 B(  4-C ,  6-C ) :   0.9210
B(  4-C , 23-H ) :   1.0011 B(  5-C ,  6-C ) :   0.9069 B(  5-C ,  9-C ) :   1.1041
B(  5-C , 24-H ) :   0.9842 B(  6-C ,  7-C ) :   1.0142 B(  6-C ,  8-C ) :   1.0244
B(  7-C , 25-H ) :   0.9881 B(  7-C , 26-H ) :   0.9836 B(  7-C , 27-H ) :   0.9878
B(  8-C , 28-H ) :   0.9880 B(  8-C , 29-H ) :   0.9881 B(  8-C , 30-H ) :   0.9886
B(  9-C , 10-C ) :   1.8731 B(  9-C , 13-C ) :   1.0100 B( 10-C , 11-C ) :   1.0069
B( 11-C , 12-C ) :   0.9974 B( 11-C , 31-H ) :   0.9921 B( 11-C , 32-H ) :   0.9779
B( 12-C , 13-C ) :   0.9788 B( 12-C , 33-H ) :   1.0001 B( 12-C , 34-H ) :   0.9958
B( 13-C , 14-C ) :   1.0009 B( 13-C , 35-H ) :   0.9833 B( 14-C , 36-H ) :   0.9932
B( 14-C , 37-H ) :   0.9910 B( 14-C , 38-H ) :   0.9932

Dispersion correction           -0.053420178
FINAL SINGLE POINT ENERGY       -99.931236687501

DIPOLE MOMENT
-------------

Method             : SCF
Type of density    : Electron Density
Multiplicity       :   1
Irrep              :   0
Energy             :   -99.8778165093800681 Eh
Relativity type    :
Basis              : AO
                                X                 Y                 Z
Electronic contribution:     -0.845135979      -1.549689420      -5.257635539
Nuclear contribution   :      0.913833735       1.610080578       5.151677462
                        -----------------------------------------
Total Dipole Moment    :      0.068697756       0.060391158      -0.105958077
                        -----------------------------------------
Magnitude (a.u.)       :      0.139977097
Magnitude (Debye)      :      0.355793506

VIBRATIONAL FREQUENCIES
-----------------------

Scaling factor for frequencies =  1.000000000  (already applied!)

     0:       0.00 cm**-1
     1:       0.00 cm**-1
     2:       0.00 cm**-1
     3:       0.00 cm**-1
     4:       0.00 cm**-1
     5:       0.00 cm**-1
     6:      47.65 cm**-1
     7:      69.82 cm**-1
     8:     126.62 cm**-1
     9:     152.52 cm**-1
    10:     162.77 cm**-1
    11:     170.48 cm**-1
    12:     223.62 cm**-1
    13:     226.71 cm**-1
    14:     239.19 cm**-1
    15:     258.87 cm**-1
    16:     265.14 cm**-1
    17:     272.31 cm**-1
    18:     297.73 cm**-1
    19:     317.28 cm**-1
    20:     328.71 cm**-1
    21:     366.99 cm**-1
    22:     382.21 cm**-1
    23:     409.98 cm**-1
    24:     428.85 cm**-1
    25:     467.42 cm**-1
    26:     488.61 cm**-1
    27:     514.49 cm**-1
    28:     588.25 cm**-1
    29:     603.05 cm**-1
    30:     665.73 cm**-1
    31:     688.84 cm**-1
    32:     740.51 cm**-1
    33:     765.07 cm**-1
    34:     812.18 cm**-1
    35:     851.84 cm**-1
    36:     872.98 cm**-1
    37:     925.40 cm**-1
    38:     938.10 cm**-1
    39:     946.21 cm**-1
    40:     969.56 cm**-1
    41:     987.82 cm**-1
    42:     988.98 cm**-1
    43:     995.37 cm**-1
    44:    1016.00 cm**-1
    45:    1038.74 cm**-1
    46:    1040.24 cm**-1
    47:    1048.22 cm**-1
    48:    1077.31 cm**-1
    49:    1082.75 cm**-1
    50:    1107.10 cm**-1
    51:    1124.07 cm**-1
    52:    1136.23 cm**-1
    53:    1154.90 cm**-1
    54:    1166.66 cm**-1
    55:    1168.28 cm**-1
    56:    1181.69 cm**-1
    57:    1210.69 cm**-1
    58:    1228.48 cm**-1
    59:    1250.26 cm**-1
    60:    1252.41 cm**-1
    61:    1262.57 cm**-1
    62:    1290.51 cm**-1
    63:    1293.90 cm**-1
    64:    1326.44 cm**-1
    65:    1348.16 cm**-1
    66:    1359.58 cm**-1
    67:    1370.04 cm**-1
    68:    1377.77 cm**-1
    69:    1384.12 cm**-1
    70:    1405.38 cm**-1
    71:    1413.45 cm**-1
    72:    1430.07 cm**-1
    73:    1440.96 cm**-1
    74:    1443.65 cm**-1
    75:    1445.51 cm**-1
    76:    1447.59 cm**-1
    77:    1452.87 cm**-1
    78:    1456.22 cm**-1
    79:    1509.43 cm**-1
    80:    1510.70 cm**-1
    81:    1512.40 cm**-1
    82:    1518.74 cm**-1
    83:    1521.05 cm**-1
    84:    1524.64 cm**-1
    85:    1527.45 cm**-1
    86:    1528.15 cm**-1
    87:    1530.69 cm**-1
    88:    1532.11 cm**-1
    89:    1540.17 cm**-1
    90:    1544.99 cm**-1
    91:    1563.67 cm**-1
    92:    1787.25 cm**-1
    93:    3041.42 cm**-1
    94:    3060.66 cm**-1
    95:    3076.46 cm**-1
    96:    3078.04 cm**-1
    97:    3084.87 cm**-1
    98:    3094.15 cm**-1
    99:    3095.51 cm**-1
   100:    3096.58 cm**-1
   101:    3101.58 cm**-1
   102:    3105.08 cm**-1
   103:    3123.30 cm**-1
   104:    3154.47 cm**-1
   105:    3163.34 cm**-1
   106:    3164.02 cm**-1
   107:    3166.90 cm**-1
   108:    3168.78 cm**-1
   109:    3169.88 cm**-1
   110:    3182.15 cm**-1
   111:    3183.53 cm**-1
   112:    3183.75 cm**-1
   113:    3189.20 cm**-1
   114:    3191.48 cm**-1
   115:    3195.92 cm**-1
   116:    3219.60 cm**-1

IR SPECTRUM
-----------

 Mode   freq       eps      Int      T**2         TX        TY        TZ
       cm**-1   L/(mol*cm) km/mol    a.u.
----------------------------------------------------------------------------
  6:     47.65   0.000001    0.01  0.000007  (-0.001984  0.001689 -0.000529)
  7:     69.82   0.000013    0.06  0.000056  ( 0.003545  0.000661  0.006551)
  8:    126.62   0.000063    0.32  0.000155  (-0.001326 -0.004341 -0.011597)
  9:    152.52   0.000001    0.01  0.000003  (-0.000465 -0.000275  0.001586)
 10:    162.77   0.000028    0.14  0.000054  (-0.000893 -0.001840 -0.007080)
 11:    170.48   0.000016    0.08  0.000028  (-0.002328  0.004787 -0.000235)
 12:    223.62   0.000038    0.19  0.000053  ( 0.001398  0.006419  0.003140)
 13:    226.71   0.000012    0.06  0.000017  ( 0.003733 -0.000603 -0.001520)
 14:    239.19   0.000127    0.64  0.000166  ( 0.002616  0.010987  0.006178)
 15:    258.87   0.000020    0.10  0.000024  ( 0.003174 -0.003543  0.001270)
 16:    265.14   0.000139    0.70  0.000164  (-0.007247 -0.009086 -0.005385)
 17:    272.31   0.000019    0.10  0.000022  (-0.002436  0.003088  0.002518)
 18:    297.73   0.000201    1.01  0.000210  (-0.003827  0.006636  0.012312)
 19:    317.28   0.000124    0.63  0.000122  ( 0.000866 -0.000407  0.011000)
 20:    328.71   0.000114    0.57  0.000108  ( 0.007146  0.002932  0.006944)
 21:    366.99   0.000135    0.68  0.000115  (-0.002829 -0.010279 -0.001085)
 22:    382.21   0.000055    0.28  0.000045  ( 0.005464  0.003323  0.002062)
 23:    409.98   0.000005    0.03  0.000004  ( 0.001800 -0.000205 -0.000814)
 24:    428.85   0.000080    0.41  0.000058  (-0.002001  0.005013 -0.005406)
 25:    467.42   0.000105    0.53  0.000070  ( 0.000337  0.005268  0.006499)
 26:    488.61   0.000174    0.88  0.000111  ( 0.004200 -0.004342 -0.008636)
 27:    514.49   0.000036    0.18  0.000022  ( 0.001339  0.004388 -0.001012)
 28:    588.25   0.000134    0.68  0.000071  (-0.004185  0.002933 -0.006713)
 29:    603.05   0.000050    0.25  0.000026  (-0.002108 -0.004644 -0.000299)
 30:    665.73   0.000430    2.17  0.000201  (-0.004128  0.011427 -0.007329)
 31:    688.84   0.000034    0.17  0.000015  (-0.002159  0.002101 -0.002526)
 32:    740.51   0.001047    5.29  0.000441  ( 0.006191 -0.005004  0.019437)
 33:    765.07   0.000044    0.22  0.000018  ( 0.000231  0.003301 -0.002645)
 34:    812.18   0.000548    2.77  0.000210  ( 0.012373  0.001343 -0.007452)
 35:    851.84   0.000061    0.31  0.000022  (-0.001109  0.002132  0.004090)
 36:    872.98   0.000193    0.98  0.000069  ( 0.001754 -0.005094  0.006328)
 37:    925.40   0.000331    1.67  0.000112  ( 0.005731  0.006865  0.005638)
 38:    938.10   0.000050    0.25  0.000017  ( 0.002763  0.002415  0.001767)
 39:    946.21   0.000243    1.23  0.000080  (-0.001682  0.008325 -0.002849)
 40:    969.56   0.000640    3.24  0.000206  ( 0.003090  0.011958  0.007316)
 41:    987.82   0.000518    2.62  0.000164  (-0.000520  0.008414 -0.009618)
 42:    988.98   0.000521    2.63  0.000164  (-0.003665  0.003420 -0.011797)
 43:    995.37   0.000414    2.09  0.000130  ( 0.009471 -0.006275  0.000900)
 44:   1016.00   0.001341    6.78  0.000412  (-0.012709  0.002962 -0.015542)
 45:   1038.74   0.000419    2.12  0.000126  (-0.008412 -0.006240  0.004033)
 46:   1040.24   0.000170    0.86  0.000051  ( 0.002070 -0.003918  0.005608)
 47:   1048.22   0.000601    3.04  0.000179  (-0.012922 -0.002283 -0.002617)
 48:   1077.31   0.000296    1.50  0.000086  ( 0.006642 -0.004657  0.004466)
 49:   1082.75   0.000319    1.61  0.000092  (-0.006511  0.003071 -0.006328)
 50:   1107.10   0.000594    3.00  0.000167  (-0.003973 -0.002309 -0.012095)
 51:   1124.07   0.000662    3.35  0.000184  (-0.012598  0.004961  0.000697)
 52:   1136.23   0.000107    0.54  0.000029  ( 0.002690  0.003183 -0.003471)
 53:   1154.90   0.000221    1.12  0.000060  (-0.007201 -0.002656 -0.000885)
 54:   1166.66   0.000265    1.34  0.000071  ( 0.007132 -0.000558  0.004432)
 55:   1168.28   0.000625    3.16  0.000167  ( 0.012056  0.002695 -0.003791)
 56:   1181.69   0.001137    5.75  0.000300  (-0.016645 -0.003730 -0.003052)
 57:   1210.69   0.001131    5.71  0.000291  ( 0.013475  0.010187  0.002455)
 58:   1228.48   0.000274    1.38  0.000070  ( 0.006640  0.005042 -0.000242)
 59:   1250.26   0.000330    1.67  0.000082  ( 0.005584 -0.006721  0.002445)
 60:   1252.41   0.000199    1.00  0.000049  ( 0.001290 -0.006711  0.001665)
 61:   1262.57   0.000324    1.64  0.000080  (-0.006825 -0.003307  0.004758)
 62:   1290.51   0.000453    2.29  0.000110  (-0.008863  0.002835 -0.004787)
 63:   1293.90   0.000671    3.39  0.000162  (-0.009109  0.004407 -0.007716)
 64:   1326.44   0.000143    0.73  0.000034  (-0.001697 -0.002888 -0.004747)
 65:   1348.16   0.000044    0.22  0.000010  ( 0.002785 -0.001569  0.000279)
 66:   1359.58   0.001003    5.07  0.000230  ( 0.006148 -0.011193  0.008199)
 67:   1370.04   0.001986   10.04  0.000452  ( 0.004742 -0.017598  0.010961)
 68:   1377.77   0.000738    3.73  0.000167  (-0.004204  0.011312 -0.004647)
 69:   1384.12   0.000512    2.59  0.000115  ( 0.000764  0.002884 -0.010319)
 70:   1405.38   0.000024    0.12  0.000005  (-0.000748  0.002115  0.000446)
 71:   1413.45   0.000535    2.70  0.000118  (-0.005202  0.009485 -0.001069)
 72:   1430.07   0.000020    0.10  0.000004  ( 0.001032 -0.001744  0.000563)
 73:   1440.96   0.001320    6.67  0.000286  ( 0.006244  0.004867 -0.014942)
 74:   1443.65   0.001351    6.83  0.000292  ( 0.007953 -0.010780  0.010606)
 75:   1445.51   0.001562    7.89  0.000337  ( 0.009706 -0.014576  0.005530)
 76:   1447.59   0.002096   10.59  0.000452  (-0.010748  0.018208  0.002191)
 77:   1452.87   0.000265    1.34  0.000057  (-0.002240  0.005194  0.004982)
 78:   1456.22   0.000851    4.30  0.000182  ( 0.007041 -0.000777  0.011500)
 79:   1509.43   0.000218    1.10  0.000045  ( 0.005020 -0.003667 -0.002531)
 80:   1510.70   0.001405    7.10  0.000290  (-0.001478  0.004991 -0.016220)
 81:   1512.40   0.000137    0.69  0.000028  (-0.004525 -0.002005  0.001918)
 82:   1518.74   0.002258   11.41  0.000464  ( 0.019448 -0.000538 -0.009239)
 83:   1521.05   0.001436    7.26  0.000295  ( 0.006200  0.006847 -0.014467)
 84:   1524.64   0.002226   11.25  0.000456  ( 0.001315  0.016294  0.013730)
 85:   1527.45   0.000821    4.15  0.000168  (-0.007825 -0.008894 -0.005234)
 86:   1528.15   0.001074    5.43  0.000219  (-0.014064 -0.001787  0.004271)
 87:   1530.69   0.002181   11.02  0.000445  (-0.000668  0.016737 -0.012809)
 88:   1532.11   0.003511   17.74  0.000715  (-0.006396 -0.024861 -0.007489)
 89:   1540.17   0.002157   10.90  0.000437  ( 0.011467 -0.000090 -0.017478)
 90:   1544.99   0.000229    1.16  0.000046  (-0.006457  0.000084 -0.002120)
 91:   1563.67   0.000164    0.83  0.000033  ( 0.000760  0.000721 -0.005621)
 92:   1787.25   0.000348    1.76  0.000061  (-0.007389 -0.002440 -0.000418)
 93:   3041.42   0.007285   36.81  0.000747  ( 0.001596  0.022272  0.015775)
 94:   3060.66   0.003547   17.93  0.000362  ( 0.003993 -0.002322 -0.018449)
 95:   3076.46   0.009547   48.25  0.000968  ( 0.022053 -0.006752  0.020892)
 96:   3078.04   0.006161   31.13  0.000625  ( 0.017725  0.010504 -0.014146)
 97:   3084.87   0.009064   45.81  0.000917  (-0.023876  0.017484 -0.006417)
 98:   3094.15   0.003693   18.66  0.000372  ( 0.003489  0.005745  0.018090)
 99:   3095.51   0.008758   44.26  0.000883  ( 0.008222 -0.017077  0.022883)
100:   3096.58   0.005728   28.95  0.000577  ( 0.020830 -0.002177  0.011775)
101:   3101.58   0.014242   71.97  0.001433  ( 0.000504 -0.037789  0.002173)
102:   3105.08   0.007418   37.49  0.000745  (-0.015495 -0.006755  0.021442)
103:   3123.30   0.004057   20.50  0.000405  (-0.010688 -0.010392 -0.013533)
104:   3154.47   0.004964   25.09  0.000491  (-0.018862  0.010509  0.004992)
105:   3163.34   0.002333   11.79  0.000230  ( 0.000244 -0.014396 -0.004784)
106:   3164.02   0.004549   22.99  0.000449  (-0.000476  0.006689 -0.020092)
107:   3166.90   0.002283   11.54  0.000225  ( 0.011134  0.009617 -0.002916)
108:   3168.78   0.006468   32.68  0.000637  ( 0.012650  0.019944 -0.008898)
109:   3169.88   0.006286   31.77  0.000619  ( 0.015356  0.018414  0.006631)
110:   3182.15   0.003686   18.63  0.000361  (-0.012706 -0.014116  0.000863)
111:   3183.53   0.002522   12.75  0.000247  ( 0.010255  0.001036  0.011874)
112:   3183.75   0.004682   23.66  0.000459  (-0.006473 -0.004992  0.019802)
113:   3189.20   0.007839   39.61  0.000767  (-0.013694  0.009308  0.022200)
114:   3191.48   0.004582   23.16  0.000448  (-0.011262  0.013482  0.011807)
115:   3195.92   0.003833   19.37  0.000374  (-0.012509 -0.013633 -0.005653)
116:   3219.60   0.001819    9.19  0.000176  (-0.012008  0.005481 -0.001452)

--------------------------
THERMOCHEMISTRY AT 298.15K
--------------------------

Temperature         ...   298.15 K
Pressure            ...     1.00 atm
Total Mass          ...   204.36 AMU
Quasi RRHO          ...     True
Cut-Off Frequency   ...     1.00 cm^-1

Throughout the following assumptions are being made:
  (1) The electronic state is orbitally nondegenerate
  (2) There are no thermally accessible electronically excited states
  (3) Hindered rotations indicated by low frequency modes are not
      treated as such but are treated as vibrations and this may
      cause some error
  (4) All equations used are the standard statistical mechanics
      equations for an ideal gas
  (5) All vibrations are strictly harmonic

freq.      47.65  E(vib)   ...       0.53
freq.      69.82  E(vib)   ...       0.50
freq.     126.62  E(vib)   ...       0.43
freq.     152.52  E(vib)   ...       0.40
freq.     162.77  E(vib)   ...       0.39
freq.     170.48  E(vib)   ...       0.38
freq.     223.62  E(vib)   ...       0.33
freq.     226.71  E(vib)   ...       0.33
freq.     239.19  E(vib)   ...       0.31
freq.     258.87  E(vib)   ...       0.30
freq.     265.14  E(vib)   ...       0.29
freq.     272.31  E(vib)   ...       0.29
freq.     297.73  E(vib)   ...       0.27
freq.     317.28  E(vib)   ...       0.25
freq.     328.71  E(vib)   ...       0.24
freq.     366.99  E(vib)   ...       0.22
freq.     382.21  E(vib)   ...       0.21
freq.     409.98  E(vib)   ...       0.19
freq.     428.85  E(vib)   ...       0.18
freq.     467.42  E(vib)   ...       0.16
freq.     488.61  E(vib)   ...       0.15
freq.     514.49  E(vib)   ...       0.13
freq.     588.25  E(vib)   ...       0.10
freq.     603.05  E(vib)   ...       0.10
freq.     665.73  E(vib)   ...       0.08
freq.     688.84  E(vib)   ...       0.07
freq.     740.51  E(vib)   ...       0.06
freq.     765.07  E(vib)   ...       0.06
freq.     812.18  E(vib)   ...       0.05
freq.     851.84  E(vib)   ...       0.04
freq.     872.98  E(vib)   ...       0.04
freq.     925.40  E(vib)   ...       0.03
freq.     938.10  E(vib)   ...       0.03
freq.     946.21  E(vib)   ...       0.03
freq.     969.56  E(vib)   ...       0.03
freq.     987.82  E(vib)   ...       0.02
freq.     988.98  E(vib)   ...       0.02
freq.     995.37  E(vib)   ...       0.02
freq.    1016.00  E(vib)   ...       0.02
freq.    1038.74  E(vib)   ...       0.02
freq.    1040.24  E(vib)   ...       0.02
freq.    1048.22  E(vib)   ...       0.02
freq.    1077.31  E(vib)   ...       0.02
freq.    1082.75  E(vib)   ...       0.02
freq.    1107.10  E(vib)   ...       0.02
freq.    1124.07  E(vib)   ...       0.01
freq.    1136.23  E(vib)   ...       0.01
freq.    1154.90  E(vib)   ...       0.01
freq.    1166.66  E(vib)   ...       0.01
freq.    1168.28  E(vib)   ...       0.01
freq.    1181.69  E(vib)   ...       0.01
freq.    1210.69  E(vib)   ...       0.01
freq.    1228.48  E(vib)   ...       0.01
freq.    1250.26  E(vib)   ...       0.01
freq.    1252.41  E(vib)   ...       0.01
freq.    1262.57  E(vib)   ...       0.01
freq.    1290.51  E(vib)   ...       0.01
freq.    1293.90  E(vib)   ...       0.01
freq.    1326.44  E(vib)   ...       0.01
freq.    1348.16  E(vib)   ...       0.01
freq.    1359.58  E(vib)   ...       0.01
freq.    1370.04  E(vib)   ...       0.01
freq.    1377.77  E(vib)   ...       0.01
freq.    1384.12  E(vib)   ...       0.00
freq.    1405.38  E(vib)   ...       0.00
freq.    1413.45  E(vib)   ...       0.00
freq.    1430.07  E(vib)   ...       0.00
freq.    1440.96  E(vib)   ...       0.00
freq.    1443.65  E(vib)   ...       0.00
freq.    1445.51  E(vib)   ...       0.00
freq.    1447.59  E(vib)   ...       0.00
freq.    1452.87  E(vib)   ...       0.00
freq.    1456.22  E(vib)   ...       0.00
freq.    1509.43  E(vib)   ...       0.00
freq.    1510.70  E(vib)   ...       0.00
freq.    1512.40  E(vib)   ...       0.00
freq.    1518.74  E(vib)   ...       0.00
freq.    1521.05  E(vib)   ...       0.00
freq.    1524.64  E(vib)   ...       0.00
freq.    1527.45  E(vib)   ...       0.00
freq.    1528.15  E(vib)   ...       0.00
freq.    1530.69  E(vib)   ...       0.00
freq.    1532.11  E(vib)   ...       0.00
freq.    1540.17  E(vib)   ...       0.00
freq.    1544.99  E(vib)   ...       0.00
freq.    1563.67  E(vib)   ...       0.00
freq.    1787.25  E(vib)   ...       0.00
freq.    3041.42  E(vib)   ...       0.00
freq.    3060.66  E(vib)   ...       0.00
freq.    3076.46  E(vib)   ...       0.00
freq.    3078.04  E(vib)   ...       0.00
freq.    3084.87  E(vib)   ...       0.00
freq.    3094.15  E(vib)   ...       0.00
freq.    3095.51  E(vib)   ...       0.00
freq.    3096.58  E(vib)   ...       0.00
freq.    3101.58  E(vib)   ...       0.00
freq.    3105.08  E(vib)   ...       0.00
freq.    3123.30  E(vib)   ...       0.00
freq.    3154.47  E(vib)   ...       0.00
freq.    3163.34  E(vib)   ...       0.00
freq.    3164.02  E(vib)   ...       0.00
freq.    3166.90  E(vib)   ...       0.00
freq.    3168.78  E(vib)   ...       0.00
freq.    3169.88  E(vib)   ...       0.00
freq.    3182.15  E(vib)   ...       0.00
freq.    3183.53  E(vib)   ...       0.00
freq.    3183.75  E(vib)   ...       0.00
freq.    3189.20  E(vib)   ...       0.00
freq.    3191.48  E(vib)   ...       0.00
freq.    3195.92  E(vib)   ...       0.00
freq.    3219.60  E(vib)   ...       0.00

------------
INNER ENERGY
------------

The inner energy is: U= E(el) + E(ZPE) + E(vib) + E(rot) + E(trans)
    E(el)   - is the total energy from the electronic structure calculation
              = E(kin-el) + E(nuc-el) + E(el-el) + E(nuc-nuc)
    E(ZPE)  - the the zero temperature vibrational energy from the frequency calculation
    E(vib)  - the the finite temperature correction to E(ZPE) due to population
              of excited vibrational states
    E(rot)  - is the rotational thermal energy
    E(trans)- is the translational thermal energy

Summary of contributions to the inner energy U:
Electronic energy                ...    -99.93123669 Eh
Zero point energy                ...      0.36617625 Eh     229.78 kcal/mol
Thermal vibrational correction   ...      0.01212783 Eh       7.61 kcal/mol
Thermal rotational correction    ...      0.00141627 Eh       0.89 kcal/mol
Thermal translational correction ...      0.00141627 Eh       0.89 kcal/mol
-----------------------------------------------------------------------
Total thermal energy                    -99.55010006 Eh

Summary of corrections to the electronic energy:
(perhaps to be used in another calculation)
Total thermal correction                  0.01496038 Eh       9.39 kcal/mol
Non-thermal (ZPE) correction              0.36617625 Eh     229.78 kcal/mol
-----------------------------------------------------------------------
Total correction                          0.38113662 Eh     239.17 kcal/mol

Rotational constants in cm-1:     0.025188     0.020562     0.012930

                             ****ORCA TERMINATED NORMALLY****
TOTAL RUN TIME: 0 days 0 hours 30 minutes 16 seconds 648 msec
