                         Program Version 6.0.1  -  RELEASE   -
|  1> ! wB97X-3c OPT FREQ TightSCF
|  2> %pal
|  3>   nprocs 40
|  4> end
|  5> * xyz 0 1
|  6> C      3.781732     0.390524    -0.430019
|  7> C      2.994395     0.048609     0.831492
|  8> C      1.558717    -0.302298     0.492250
|  9> C      0.652107     0.761698     0.440670
| 10> C     -0.705949     0.708361     0.147558
| 11> C     -1.540957     1.822643     0.127370
| 12> C     -2.823324     1.422254    -0.179355
| 13> C     -2.831240     0.058257    -0.361146
| 14> C     -1.546211    -0.444423    -0.173586
| 15> C     -1.193849    -1.795725    -0.297735
| 16> C      0.103624    -2.299845    -0.134472
| 17> C      1.292570    -1.650752     0.205051
| 18> C     -2.277827    -2.792964    -0.650439
| 19> C     -1.144618     3.243455     0.398551
| 20> H      3.794025    -0.477107    -1.123758
| 21> H      4.828250     0.643575    -0.158640
| 22> H      3.326430     1.264059    -0.943745
| 23> H      3.494439    -0.795562     1.355447
| 24> H      3.034730     0.912345     1.531290
| 25> H      1.055998     1.743959     0.655856
| 26> H     -3.686409     2.069614    -0.265154
| 27> H     -3.715719    -0.510470    -0.615671
| 28> H      0.227851    -3.366521    -0.285406
| 29> H      2.145709    -2.319218     0.257343
| 30> H     -1.904408    -3.837810    -0.701876
| 31> H     -3.078966    -2.766085     0.118304
| 32> H     -2.710212    -2.542399    -1.642272
| 33> H     -0.743926     3.329845     1.430138
| 34> H     -0.367862     3.560900    -0.328164
| 35> H     -2.019099     3.921081     0.300118
| 36> *
| 37>
| 38>                          ****END OF INPUT****
 Total Charge           Charge          ....    0
 Multiplicity           Mult            ....    1
 Number of Electrons    NEL             ....   72
Dispersion correction           -0.041299340
FINAL SINGLE POINT ENERGY       -89.340963242159
Dispersion correction             ... done (  0.1 sec)
Dispersion correction           -0.041427148
FINAL SINGLE POINT ENERGY       -89.347892079259
Dispersion correction             ... done (  0.1 sec)
Dispersion correction           -0.041430511
FINAL SINGLE POINT ENERGY       -89.348540320753
Dispersion correction             ... done (  0.1 sec)
FINAL SINGLE POINT ENERGY       -89.348758033907
FINAL SINGLE POINT ENERGY       -89.348835207955
FINAL SINGLE POINT ENERGY       -89.348908600103
FINAL SINGLE POINT ENERGY       -89.348965409214
FINAL SINGLE POINT ENERGY       -89.348999229762
FINAL SINGLE POINT ENERGY       -89.349012507823
FINAL SINGLE POINT ENERGY       -89.349017525929
Dispersion correction             ... done (  0.1 sec)
Dispersion correction           -0.041412611
FINAL SINGLE POINT ENERGY       -89.349020321369
Dispersion correction             ... done (  0.1 sec)
Dispersion correction           -0.041412412
FINAL SINGLE POINT ENERGY       -89.349021364826
Dispersion correction             ... done (  0.1 sec)
                    ***********************HURRAY********************

CARTESIAN COORDINATES (ANGSTROEM)
---------------------------------
  C      3.720170    0.546898   -0.419280
  C      2.989640    0.001569    0.797824
  C      1.561317   -0.372481    0.491698
  C      0.638361    0.684467    0.423225
  C     -0.694884    0.673128    0.137157
  C     -1.509993    1.838548    0.109846
  C     -2.782966    1.437496   -0.214425
  C     -2.829722    0.037238   -0.400645
  C     -1.568484   -0.476814   -0.194478
  C     -1.197193   -1.831455   -0.281663
  C      0.064360   -2.333069   -0.070472
  C      1.265125   -1.692534    0.266418
  C     -2.280622   -2.806632   -0.634574
  C     -1.057179    3.231952    0.382206
  H      3.750732   -0.195872   -1.215994
  H      4.744361    0.823265   -0.171160
  H      3.219665    1.430678   -0.814610
  H      3.519949   -0.869657    1.182164
  H      3.004893    0.746016    1.595960
  H      1.052133    1.665267    0.635723
  H     -3.631042    2.100525   -0.313194
  H     -3.711857   -0.524420   -0.659391
  H      0.156931   -3.406348   -0.180493
  H      2.105745   -2.370850    0.365274
  H     -1.901466   -3.823771   -0.679677
  H     -3.081561   -2.770555    0.102924
  H     -2.717270   -2.559311   -1.601461
  H     -0.650887    3.337849    1.388691
  H     -0.286986    3.553733   -0.319731
  H     -1.891270    3.925140    0.292138

 Multiplicity           Mult            ....    1
 Number of Electrons    NEL             ....   72
 Basis Dimension        Dim             ....  262

ORBITAL ENERGIES
----------------

  NO   OCC          E(Eh)            E(eV)
   0   2.0000      -1.024009       -27.8647
   1   2.0000      -0.981215       -26.7002
   2   2.0000      -0.958491       -26.0819
   3   2.0000      -0.901655       -24.5353
   4   2.0000      -0.884127       -24.0583
   5   2.0000      -0.875755       -23.8305
   6   2.0000      -0.829405       -22.5693
   7   2.0000      -0.800848       -21.7922
   8   2.0000      -0.766027       -20.8446
   9   2.0000      -0.756162       -20.5762
  10   2.0000      -0.719979       -19.5916
  11   2.0000      -0.663885       -18.0652
  12   2.0000      -0.646970       -17.6050
  13   2.0000      -0.639028       -17.3888
  14   2.0000      -0.598835       -16.2951
  15   2.0000      -0.569442       -15.4953
  16   2.0000      -0.562829       -15.3153
  17   2.0000      -0.551026       -14.9942
  18   2.0000      -0.545423       -14.8417
  19   2.0000      -0.530086       -14.4244
  20   2.0000      -0.527038       -14.3414
  21   2.0000      -0.522051       -14.2057
  22   2.0000      -0.511869       -13.9287
  23   2.0000      -0.501172       -13.6376
  24   2.0000      -0.490354       -13.3432
  25   2.0000      -0.478876       -13.0309
  26   2.0000      -0.473801       -12.8928
  27   2.0000      -0.468374       -12.7451
  28   2.0000      -0.462068       -12.5735
  29   2.0000      -0.451285       -12.2801
  30   2.0000      -0.443014       -12.0550
  31   2.0000      -0.427984       -11.6460
  32   2.0000      -0.426119       -11.5953
  33   2.0000      -0.385370       -10.4864
  34   2.0000      -0.313174        -8.5219
  35   2.0000      -0.268319        -7.3013
  36   0.0000      -0.001823        -0.0496
  37   0.0000       0.028039         0.7630
  38   0.0000       0.082645         2.2489
  39   0.0000       0.090040         2.4501
  40   0.0000       0.096219         2.6183

MULLIKEN ATOMIC CHARGES
-----------------------
   0 C :   -0.053815
   1 C :   -0.055272
   2 C :   -0.054939
   3 C :    0.034794
   4 C :   -0.053547
   5 C :   -0.061482
   6 C :    0.015323
   7 C :   -0.029602
   8 C :   -0.066228
   9 C :   -0.070204
  10 C :    0.007670
  11 C :    0.033021
  12 C :   -0.056053
  13 C :   -0.073565
  14 H :    0.036648
  15 H :    0.032203
  16 H :    0.031343
  17 H :    0.033268
  18 H :    0.041895
  19 H :   -0.004397
  20 H :    0.009500
  21 H :    0.011618
  22 H :    0.014824
  23 H :    0.012576
  24 H :    0.028422
  25 H :    0.056298
  26 H :    0.055696
  27 H :    0.047441
  28 H :    0.045014
  29 H :    0.031550
Sum of atomic charges:   -0.0000000

LOEWDIN ATOMIC CHARGES
----------------------
   0 C :   -0.108330
   1 C :   -0.085503
   2 C :   -0.046458
   3 C :    0.005449
   4 C :   -0.021475
   5 C :   -0.062819
   6 C :   -0.033978
   7 C :   -0.069973
   8 C :   -0.037081
   9 C :   -0.008119
  10 C :   -0.059284
  11 C :   -0.023765
  12 C :   -0.094333
  13 C :   -0.117543
  14 H :    0.045188
  15 H :    0.044425
  16 H :    0.043285
  17 H :    0.048917
  18 H :    0.049244
  19 H :    0.057560
  20 H :    0.036389
  21 H :    0.029045
  22 H :    0.047888
  23 H :    0.054411
  24 H :    0.048719
  25 H :    0.055290
  26 H :    0.055217
  27 H :    0.047592
  28 H :    0.047248
  29 H :    0.052790

  Mayer bond orders larger than 0.100000
B(  0-C ,  1-C ) :   0.9797 B(  0-C , 14-H ) :   0.9915 B(  0-C , 15-H ) :   0.9950
B(  0-C , 16-H ) :   0.9933 B(  1-C ,  2-C ) :   1.0079 B(  1-C , 17-H ) :   0.9950
B(  1-C , 18-H ) :   0.9889 B(  2-C ,  3-C ) :   1.3224 B(  2-C , 11-C ) :   1.5116
B(  3-C ,  4-C ) :   1.5219 B(  3-C , 19-H ) :   0.9825 B(  4-C ,  5-C ) :   1.3062
B(  4-C ,  8-C ) :   1.1056 B(  5-C ,  6-C ) :   1.5240 B(  5-C , 13-C ) :   1.0331
B(  6-C ,  7-C ) :   1.3052 B(  6-C , 20-H ) :   0.9910 B(  7-C ,  8-C ) :   1.5112
B(  7-C , 21-H ) :   0.9838 B(  8-C ,  9-C ) :   1.3602 B(  9-C , 10-C ) :   1.4858
B(  9-C , 12-C ) :   1.0229 B( 10-C , 11-C ) :   1.3401 B( 10-C , 22-H ) :   0.9802
B( 11-C , 23-H ) :   0.9857 B( 12-C , 24-H ) :   0.9921 B( 12-C , 25-H ) :   0.9707
B( 12-C , 26-H ) :   0.9710 B( 13-C , 27-H ) :   0.9753 B( 13-C , 28-H ) :   0.9755
B( 13-C , 29-H ) :   0.9895

Dispersion correction           -0.041412336
FINAL SINGLE POINT ENERGY       -89.349021691355

DIPOLE MOMENT
-------------

Method             : SCF
Type of density    : Electron Density
Multiplicity       :   1
Irrep              :   0
Energy             :   -89.3076093552474362 Eh
Relativity type    :
Basis              : AO
                                X                 Y                 Z
Electronic contribution:     -8.537470812      -2.816810325       1.009021993
Nuclear contribution   :      9.038112004       2.606048508      -0.964265863
                        -----------------------------------------
Total Dipole Moment    :      0.500641192      -0.210761817       0.044756130
                        -----------------------------------------
Magnitude (a.u.)       :      0.545036932
Magnitude (Debye)      :      1.385373784

VIBRATIONAL FREQUENCIES
-----------------------

Scaling factor for frequencies =  1.000000000  (already applied!)

     0:       0.00 cm**-1
     1:       0.00 cm**-1
     2:       0.00 cm**-1
     3:       0.00 cm**-1
     4:       0.00 cm**-1
     5:       0.00 cm**-1
     6:      47.03 cm**-1
     7:      70.01 cm**-1
     8:     109.58 cm**-1
     9:     132.98 cm**-1
    10:     147.31 cm**-1
    11:     170.01 cm**-1
    12:     197.55 cm**-1
    13:     220.19 cm**-1
    14:     234.85 cm**-1
    15:     273.59 cm**-1
    16:     323.10 cm**-1
    17:     343.63 cm**-1
    18:     369.11 cm**-1
    19:     381.45 cm**-1
    20:     399.62 cm**-1
    21:     429.73 cm**-1
    22:     528.81 cm**-1
    23:     552.94 cm**-1
    24:     564.51 cm**-1
    25:     630.37 cm**-1
    26:     667.90 cm**-1
    27:     689.20 cm**-1
    28:     749.67 cm**-1
    29:     753.35 cm**-1
    30:     756.39 cm**-1
    31:     808.36 cm**-1
    32:     819.42 cm**-1
    33:     862.15 cm**-1
    34:     896.94 cm**-1
    35:     925.71 cm**-1
    36:     945.24 cm**-1
    37:     976.31 cm**-1
    38:     998.45 cm**-1
    39:    1005.68 cm**-1
    40:    1007.44 cm**-1
    41:    1046.62 cm**-1
    42:    1058.07 cm**-1
    43:    1080.68 cm**-1
    44:    1083.24 cm**-1
    45:    1104.30 cm**-1
    46:    1120.04 cm**-1
    47:    1143.74 cm**-1
    48:    1174.48 cm**-1
    49:    1254.31 cm**-1
    50:    1260.43 cm**-1
    51:    1283.15 cm**-1
    52:    1312.04 cm**-1
    53:    1350.13 cm**-1
    54:    1395.20 cm**-1
    55:    1396.34 cm**-1
    56:    1436.22 cm**-1
    57:    1439.06 cm**-1
    58:    1444.71 cm**-1
    59:    1447.46 cm**-1
    60:    1471.62 cm**-1
    61:    1498.71 cm**-1
    62:    1512.55 cm**-1
    63:    1516.46 cm**-1
    64:    1517.94 cm**-1
    65:    1524.88 cm**-1
    66:    1527.24 cm**-1
    67:    1535.02 cm**-1
    68:    1538.36 cm**-1
    69:    1539.37 cm**-1
    70:    1632.86 cm**-1
    71:    1647.91 cm**-1
    72:    1692.66 cm**-1
    73:    1736.25 cm**-1
    74:    3095.72 cm**-1
    75:    3102.00 cm**-1
    76:    3109.05 cm**-1
    77:    3110.95 cm**-1
    78:    3161.36 cm**-1
    79:    3172.49 cm**-1
    80:    3195.80 cm**-1
    81:    3196.43 cm**-1
    82:    3198.23 cm**-1
    83:    3198.81 cm**-1
    84:    3208.77 cm**-1
    85:    3210.05 cm**-1
    86:    3218.52 cm**-1
    87:    3236.13 cm**-1
    88:    3269.44 cm**-1
    89:    3310.82 cm**-1

IR SPECTRUM
-----------

 Mode   freq       eps      Int      T**2         TX        TY        TZ
       cm**-1   L/(mol*cm) km/mol    a.u.
----------------------------------------------------------------------------
  6:     47.03   0.000018    0.09  0.000121  (-0.003581  0.008449  0.006054)
  7:     70.01   0.000003    0.01  0.000012  (-0.001885  0.002242 -0.001903)
  8:    109.58   0.000518    2.62  0.001475  (-0.007571 -0.006898  0.037012)
  9:    132.98   0.000011    0.06  0.000027  ( 0.001380  0.000110 -0.004995)
 10:    147.31   0.000234    1.18  0.000496  (-0.005341 -0.000373  0.021625)
 11:    170.01   0.000257    1.30  0.000472  ( 0.004023  0.000788 -0.021332)
 12:    197.55   0.000102    0.51  0.000161  ( 0.006640  0.005109  0.009527)
 13:    220.19   0.000336    1.70  0.000476  (-0.007003 -0.000389  0.020667)
 14:    234.85   0.000085    0.43  0.000113  ( 0.007647 -0.006777  0.002927)
 15:    273.59   0.000032    0.16  0.000037  (-0.002279 -0.001889  0.005307)
 16:    323.10   0.000018    0.09  0.000017  (-0.002436  0.002850 -0.001728)
 17:    343.63   0.000402    2.03  0.000365  ( 0.004941  0.012607 -0.013491)
 18:    369.11   0.000233    1.17  0.000197  ( 0.001571 -0.003898 -0.013376)
 19:    381.45   0.000269    1.36  0.000220  (-0.003353 -0.001044  0.014411)
 20:    399.62   0.000798    4.03  0.000623  ( 0.021385 -0.012698  0.002140)
 21:    429.73   0.000456    2.30  0.000331  (-0.009807  0.012828  0.008390)
 22:    528.81   0.001436    7.26  0.000847  (-0.002988 -0.027449  0.009221)
 23:    552.94   0.001065    5.38  0.000601  ( 0.001349  0.021878  0.010969)
 24:    564.51   0.000043    0.22  0.000024  (-0.000864 -0.000228  0.004769)
 25:    630.37   0.000019    0.09  0.000009  (-0.001484  0.000244  0.002641)
 26:    667.90   0.001721    8.70  0.000804  ( 0.005189  0.001423 -0.027845)
 27:    689.20   0.000296    1.49  0.000134  (-0.005966  0.009488  0.002875)
 28:    749.67   0.001131    5.72  0.000471  ( 0.001876 -0.021340 -0.003474)
 29:    753.35   0.001863    9.41  0.000772  (-0.004863 -0.007206  0.026383)
 30:    756.39   0.001666    8.42  0.000687  ( 0.003659  0.025579  0.004448)
 31:    808.36   0.000812    4.10  0.000314  ( 0.000847 -0.016463 -0.006466)
 32:    819.42   0.004870   24.61  0.001855  (-0.008959 -0.008522  0.041251)
 33:    862.15   0.006106   30.86  0.002210  ( 0.010429  0.004716 -0.045597)
 34:    896.94   0.001856    9.38  0.000646  ( 0.008505  0.023421  0.004993)
 35:    925.71   0.000357    1.80  0.000120  ( 0.002176  0.002262 -0.010505)
 36:    945.24   0.010725   54.20  0.003541  ( 0.025223 -0.053840 -0.002411)
 37:    976.31   0.000954    4.82  0.000305  ( 0.000449 -0.000053 -0.017460)
 38:    998.45   0.000611    3.09  0.000191  ( 0.010856  0.008456  0.001288)
 39:   1005.68   0.001263    6.38  0.000392  (-0.013097 -0.014841 -0.000138)
 40:   1007.44   0.000291    1.47  0.000090  (-0.001965 -0.003667 -0.008526)
 41:   1046.62   0.001123    5.68  0.000335  ( 0.016912  0.005591  0.004198)
 42:   1058.07   0.000809    4.09  0.000239  (-0.014422  0.005216 -0.001875)
 43:   1080.68   0.000720    3.64  0.000208  (-0.002878 -0.001922  0.013997)
 44:   1083.24   0.000163    0.82  0.000047  ( 0.001592  0.001031 -0.006585)
 45:   1104.30   0.001012    5.12  0.000286  (-0.000127 -0.016797 -0.001983)
 46:   1120.04   0.001490    7.53  0.000415  (-0.019728 -0.001379 -0.004895)
 47:   1143.74   0.002150   10.86  0.000587  (-0.017493  0.016572 -0.002419)
 48:   1174.48   0.000782    3.95  0.000208  ( 0.008873 -0.011289  0.001302)
 49:   1254.31   0.000959    4.85  0.000239  ( 0.013346 -0.007676  0.001230)
 50:   1260.43   0.001788    9.04  0.000443  ( 0.003421  0.020550  0.002954)
 51:   1283.15   0.000506    2.56  0.000123  ( 0.002636  0.010634  0.001755)
 52:   1312.04   0.000250    1.26  0.000059  (-0.000700  0.007639  0.000722)
 53:   1350.13   0.001046    5.28  0.000242  (-0.007378 -0.013452 -0.002512)
 54:   1395.20   0.000814    4.11  0.000182  (-0.012669 -0.001690 -0.004331)
 55:   1396.34   0.000451    2.28  0.000101  (-0.006900  0.007010 -0.002003)
 56:   1436.22   0.000426    2.15  0.000093  (-0.004594  0.008454 -0.000114)
 57:   1439.06   0.004826   24.39  0.001047  (-0.030142  0.011618  0.001752)
 58:   1444.71   0.001228    6.20  0.000265  (-0.008698  0.002670 -0.013505)
 59:   1447.46   0.001321    6.68  0.000285  (-0.004348 -0.016007  0.003107)
 60:   1471.62   0.000643    3.25  0.000136  (-0.010802 -0.003703 -0.002426)
 61:   1498.71   0.004172   21.08  0.000869  ( 0.003381 -0.029173 -0.002479)
 62:   1512.55   0.002232   11.28  0.000460  (-0.004086 -0.002834  0.020875)
 63:   1516.46   0.001988   10.05  0.000409  ( 0.005907  0.000322 -0.019341)
 64:   1517.94   0.006564   33.17  0.001349  (-0.024861  0.026070 -0.007193)
 65:   1524.88   0.002345   11.85  0.000480  (-0.001889  0.021351  0.004533)
 66:   1527.24   0.011274   56.98  0.002304  (-0.041074  0.024740 -0.002153)
 67:   1535.02   0.003825   19.33  0.000778  ( 0.009607 -0.026130  0.001609)
 68:   1538.36   0.004580   23.14  0.000929  (-0.026941  0.008886 -0.011144)
 69:   1539.37   0.002174   10.99  0.000441  (-0.014236  0.011350  0.010453)
 70:   1632.86   0.009589   48.46  0.001833  (-0.018319 -0.037726 -0.008587)
 71:   1647.91   0.001549    7.83  0.000293  (-0.011383  0.012778 -0.000751)
 72:   1692.66   0.010853   54.85  0.002001  (-0.033465  0.029571 -0.002569)
 73:   1736.25   0.005206   26.31  0.000936  ( 0.026494 -0.014485  0.004890)
 74:   3095.72   0.009942   50.24  0.001002  (-0.001974 -0.031273 -0.004501)
 75:   3102.00   0.006520   32.95  0.000656  ( 0.017644  0.009101 -0.016181)
 76:   3109.05   0.007157   36.17  0.000718  (-0.018219 -0.002390 -0.019512)
 77:   3110.95   0.004270   21.58  0.000428  (-0.012658 -0.015994 -0.003505)
 78:   3161.36   0.000726    3.67  0.000072  ( 0.003857 -0.007500  0.000712)
 79:   3172.49   0.002272   11.48  0.000223  ( 0.003376  0.001640 -0.014470)
 80:   3195.80   0.004484   22.66  0.000438  (-0.018925  0.007900 -0.004159)
 81:   3196.43   0.000807    4.08  0.000079  ( 0.001839  0.001167 -0.008607)
 82:   3198.23   0.003229   16.32  0.000315  (-0.010028 -0.011551 -0.009004)
 83:   3198.81   0.001529    7.73  0.000149  ( 0.010005 -0.006894  0.001249)
 84:   3208.77   0.001826    9.23  0.000178  (-0.000309 -0.013140 -0.002201)
 85:   3210.05   0.003270   16.53  0.000318  ( 0.017189  0.001427  0.004522)
 86:   3218.52   0.000752    3.80  0.000073  ( 0.001646  0.008217  0.001650)
 87:   3236.13   0.004131   20.87  0.000398  (-0.005021  0.019309  0.000518)
 88:   3269.44   0.002935   14.83  0.000280  (-0.011074  0.012535 -0.000597)
 89:   3310.82   0.000802    4.05  0.000076  ( 0.007398  0.004081  0.002047)

--------------------------
THERMOCHEMISTRY AT 298.15K
--------------------------

Temperature         ...   298.15 K
Pressure            ...     1.00 atm
Total Mass          ...   184.28 AMU
Quasi RRHO          ...     True
Cut-Off Frequency   ...     1.00 cm^-1

Throughout the following assumptions are being made:
  (1) The electronic state is orbitally nondegenerate
  (2) There are no thermally accessible electronically excited states
  (3) Hindered rotations indicated by low frequency modes are not
      treated as such but are treated as vibrations and this may
      cause some error
  (4) All equations used are the standard statistical mechanics
      equations for an ideal gas
  (5) All vibrations are strictly harmonic

freq.      47.03  E(vib)   ...       0.53
freq.      70.01  E(vib)   ...       0.50
freq.     109.58  E(vib)   ...       0.45
freq.     132.98  E(vib)   ...       0.42
freq.     147.31  E(vib)   ...       0.41
freq.     170.01  E(vib)   ...       0.38
freq.     197.55  E(vib)   ...       0.35
freq.     220.19  E(vib)   ...       0.33
freq.     234.85  E(vib)   ...       0.32
freq.     273.59  E(vib)   ...       0.29
freq.     323.10  E(vib)   ...       0.25
freq.     343.63  E(vib)   ...       0.23
freq.     369.11  E(vib)   ...       0.21
freq.     381.45  E(vib)   ...       0.21
freq.     399.62  E(vib)   ...       0.19
freq.     429.73  E(vib)   ...       0.18
freq.     528.81  E(vib)   ...       0.13
freq.     552.94  E(vib)   ...       0.12
freq.     564.51  E(vib)   ...       0.11
freq.     630.37  E(vib)   ...       0.09
freq.     667.90  E(vib)   ...       0.08
freq.     689.20  E(vib)   ...       0.07
freq.     749.67  E(vib)   ...       0.06
freq.     753.35  E(vib)   ...       0.06
freq.     756.39  E(vib)   ...       0.06
freq.     808.36  E(vib)   ...       0.05
freq.     819.42  E(vib)   ...       0.05
freq.     862.15  E(vib)   ...       0.04
freq.     896.94  E(vib)   ...       0.03
freq.     925.71  E(vib)   ...       0.03
freq.     945.24  E(vib)   ...       0.03
freq.     976.31  E(vib)   ...       0.03
freq.     998.45  E(vib)   ...       0.02
freq.    1005.68  E(vib)   ...       0.02
freq.    1007.44  E(vib)   ...       0.02
freq.    1046.62  E(vib)   ...       0.02
freq.    1058.07  E(vib)   ...       0.02
freq.    1080.68  E(vib)   ...       0.02
freq.    1083.24  E(vib)   ...       0.02
freq.    1104.30  E(vib)   ...       0.02
freq.    1120.04  E(vib)   ...       0.01
freq.    1143.74  E(vib)   ...       0.01
freq.    1174.48  E(vib)   ...       0.01
freq.    1254.31  E(vib)   ...       0.01
freq.    1260.43  E(vib)   ...       0.01
freq.    1283.15  E(vib)   ...       0.01
freq.    1312.04  E(vib)   ...       0.01
freq.    1350.13  E(vib)   ...       0.01
freq.    1395.20  E(vib)   ...       0.00
freq.    1396.34  E(vib)   ...       0.00
freq.    1436.22  E(vib)   ...       0.00
freq.    1439.06  E(vib)   ...       0.00
freq.    1444.71  E(vib)   ...       0.00
freq.    1447.46  E(vib)   ...       0.00
freq.    1471.62  E(vib)   ...       0.00
freq.    1498.71  E(vib)   ...       0.00
freq.    1512.55  E(vib)   ...       0.00
freq.    1516.46  E(vib)   ...       0.00
freq.    1517.94  E(vib)   ...       0.00
freq.    1524.88  E(vib)   ...       0.00
freq.    1527.24  E(vib)   ...       0.00
freq.    1535.02  E(vib)   ...       0.00
freq.    1538.36  E(vib)   ...       0.00
freq.    1539.37  E(vib)   ...       0.00
freq.    1632.86  E(vib)   ...       0.00
freq.    1647.91  E(vib)   ...       0.00
freq.    1692.66  E(vib)   ...       0.00
freq.    1736.25  E(vib)   ...       0.00
freq.    3095.72  E(vib)   ...       0.00
freq.    3102.00  E(vib)   ...       0.00
freq.    3109.05  E(vib)   ...       0.00
freq.    3110.95  E(vib)   ...       0.00
freq.    3161.36  E(vib)   ...       0.00
freq.    3172.49  E(vib)   ...       0.00
freq.    3195.80  E(vib)   ...       0.00
freq.    3196.43  E(vib)   ...       0.00
freq.    3198.23  E(vib)   ...       0.00
freq.    3198.81  E(vib)   ...       0.00
freq.    3208.77  E(vib)   ...       0.00
freq.    3210.05  E(vib)   ...       0.00
freq.    3218.52  E(vib)   ...       0.00
freq.    3236.13  E(vib)   ...       0.00
freq.    3269.44  E(vib)   ...       0.00
freq.    3310.82  E(vib)   ...       0.00

------------
INNER ENERGY
------------

The inner energy is: U= E(el) + E(ZPE) + E(vib) + E(rot) + E(trans)
    E(el)   - is the total energy from the electronic structure calculation
              = E(kin-el) + E(nuc-el) + E(el-el) + E(nuc-nuc)
    E(ZPE)  - the the zero temperature vibrational energy from the frequency calculation
    E(vib)  - the the finite temperature correction to E(ZPE) due to population
              of excited vibrational states
    E(rot)  - is the rotational thermal energy
    E(trans)- is the translational thermal energy

Summary of contributions to the inner energy U:
Electronic energy                ...    -89.34902169 Eh
Zero point energy                ...      0.26359586 Eh     165.41 kcal/mol
Thermal vibrational correction   ...      0.01046190 Eh       6.56 kcal/mol
Thermal rotational correction    ...      0.00141627 Eh       0.89 kcal/mol
Thermal translational correction ...      0.00141627 Eh       0.89 kcal/mol
-----------------------------------------------------------------------
Total thermal energy                    -89.07213139 Eh

Summary of corrections to the electronic energy:
(perhaps to be used in another calculation)
Total thermal correction                  0.01329445 Eh       8.34 kcal/mol
Non-thermal (ZPE) correction              0.26359586 Eh     165.41 kcal/mol
-----------------------------------------------------------------------
Total correction                          0.27689031 Eh     173.75 kcal/mol

--------
ENTHALPY
--------

The enthalpy is H = U + kB*T
                kB is Boltzmann's constant
Total thermal energy              ...    -89.07213139 Eh
Thermal Enthalpy correction       ...      0.00094421 Eh       0.59 kcal/mol
-----------------------------------------------------------------------
Total Enthalpy                    ...    -89.07118718 Eh

Note: Only C1 symmetry has been detected, increase convergence thresholds
      if your molecule has a higher symmetry. Symmetry factor of 1.0 is
      used for the rotational entropy correction.

Note: Rotational entropy computed according to Herzberg
Infrared and Raman Spectra, Chapter V,1, Van Nostrand Reinhold, 1945
Point Group:  C1, Symmetry Number:   1
Rotational constants in cm-1:     0.029442     0.020458     0.012547

Vibrational entropy computed according to the QRRHO of S. Grimme
Chem.Eur.J. 2012 18 9955 using a reference frequency of 100.0 cm-1

                             ****ORCA TERMINATED NORMALLY****
TOTAL RUN TIME: 0 days 0 hours 20 minutes 59 seconds 766 msec
