                         Program Version 6.0.1  -  RELEASE   -
|  1> ! wB97X-3c OPT FREQ TightSCF
|  2> %pal
|  3>   nprocs 40
|  4> end
|  5> * xyz 0 1
|  6> C      3.714100    -0.990425    -0.113561
|  7> C      2.882926     0.239143     0.273950
|  8> C      3.179573     0.669012     1.714220
|  9> C      1.390137    -0.002910     0.087434
| 10> C      0.654085     0.918633    -0.575900
| 11> C     -0.854033     0.848401    -0.710890
| 12> C     -1.393962    -0.618109    -0.568906
| 13> C     -0.765225    -1.263480     0.689045
| 14> C      0.768846    -1.288504     0.615219
| 15> C     -2.936375    -0.627623    -0.442709
| 16> C     -1.007749    -1.413109    -1.820742
| 17> C     -1.286492    -2.713423    -1.984825
| 18> C     -1.513012     1.864054     0.228311
| 19> C     -1.118987     2.020580     1.505227
| 20> C     -2.636681     2.731354    -0.281061
| 21> H      3.463587    -1.308877    -1.148103
| 22> H      3.526809    -1.836553     0.581472
| 23> H      4.796547    -0.742631    -0.079281
| 24> H      3.216904     1.067715    -0.390784
| 25> H      2.941286    -0.143968     2.432052
| 26> H      2.578025     1.566070     1.975346
| 27> H      4.254312     0.929757     1.819823
| 28> H      1.133056     1.821624    -0.945431
| 29> H     -1.077152     1.183707    -1.748280
| 30> H     -1.133075    -2.303786     0.822410
| 31> H     -1.078942    -0.714513     1.600643
| 32> H      1.163256    -1.509244     1.629106
| 33> H      1.078980    -2.123534    -0.048860
| 34> H     -3.268097    -0.111526     0.482837
| 35> H     -3.329825    -1.664431    -0.389415
| 36> H     -3.399649    -0.123359    -1.317911
| 37> H     -0.467330    -0.916180    -2.622271
| 38> H     -1.813835    -3.283143    -1.227739
| 39> H     -0.978826    -3.221288    -2.893059
| 40> H     -1.604577     2.747521     2.149650
| 41> H     -0.300283     1.446800     1.924598
| 42> H     -2.894897     2.490699    -1.333242
| 43> H     -3.544033     2.575484     0.340278
| 44> H     -2.339389     3.800060    -0.228652
| 45> *
| 46>
| 47>                          ****END OF INPUT****
 Total Charge           Charge          ....    0
 Multiplicity           Mult            ....    1
 Number of Electrons    NEL             ....   84
Dispersion correction           -0.052420120
FINAL SINGLE POINT ENERGY       -99.888115310315
Dispersion correction             ... done (  0.0 sec)
Dispersion correction           -0.053396530
FINAL SINGLE POINT ENERGY       -99.898750396759
Dispersion correction             ... done (  0.1 sec)
Dispersion correction           -0.053530755
FINAL SINGLE POINT ENERGY       -99.899914866913
Dispersion correction             ... done (  0.1 sec)
FINAL SINGLE POINT ENERGY       -99.900205523647
FINAL SINGLE POINT ENERGY       -99.900270396000
FINAL SINGLE POINT ENERGY       -99.900321770363
FINAL SINGLE POINT ENERGY       -99.900460353605
FINAL SINGLE POINT ENERGY       -99.900777451242
FINAL SINGLE POINT ENERGY       -99.901011254362
FINAL SINGLE POINT ENERGY       -99.901215326970
FINAL SINGLE POINT ENERGY       -99.902433064087
FINAL SINGLE POINT ENERGY       -99.902678894438
FINAL SINGLE POINT ENERGY       -99.902859163944
FINAL SINGLE POINT ENERGY       -99.902926656376
FINAL SINGLE POINT ENERGY       -99.903032658455
FINAL SINGLE POINT ENERGY       -99.903065998045
FINAL SINGLE POINT ENERGY       -99.903086602270
Dispersion correction             ... done (  0.1 sec)
Dispersion correction           -0.053445285
FINAL SINGLE POINT ENERGY       -99.903092986397
Dispersion correction             ... done (  0.1 sec)
Dispersion correction           -0.053442194
FINAL SINGLE POINT ENERGY       -99.903095061340
Dispersion correction             ... done (  0.1 sec)
                    ***********************HURRAY********************

CARTESIAN COORDINATES (ANGSTROEM)
---------------------------------
  C      3.587980   -1.021417   -0.277605
  C      2.820270    0.163052    0.293598
  C      3.216768    0.418834    1.742391
  C      1.327372   -0.000849    0.143505
  C      0.603054    0.929226   -0.465262
  C     -0.885142    0.891904   -0.649126
  C     -1.410035   -0.562540   -0.538412
  C     -0.816260   -1.196957    0.714796
  C      0.700789   -1.245246    0.695729
  C     -2.933533   -0.615760   -0.452564
  C     -1.005272   -1.298217   -1.796823
  C     -0.751540   -2.591060   -1.912399
  C     -1.574344    1.895446    0.259874
  C     -1.179435    2.116751    1.506642
  C     -2.694724    2.681734   -0.348826
  H      3.293639   -1.220549   -1.307770
  H      3.414860   -1.927469    0.303557
  H      4.659853   -0.823975   -0.262541
  H      3.098474    1.048050   -0.283297
  H      2.992063   -0.438115    2.377692
  H      2.692105    1.284872    2.144858
  H      4.287896    0.607724    1.818258
  H      1.099655    1.819838   -0.835980
  H     -1.096880    1.220492   -1.671373
  H     -1.219649   -2.201323    0.851917
  H     -1.159541   -0.617016    1.572524
  H      1.070423   -1.429916    1.706273
  H      1.039918   -2.092709    0.097083
  H     -3.296938   -0.073434    0.419614
  H     -3.258628   -1.652146   -0.372301
  H     -3.399563   -0.196096   -1.344073
  H     -0.980515   -0.692496   -2.698204
  H     -0.763862   -3.264531   -1.064728
  H     -0.521730   -3.026801   -2.875444
  H     -1.689279    2.836457    2.133962
  H     -0.328937    1.602209    1.932196
  H     -3.468444    2.035852   -0.760122
  H     -3.154083    3.349271    0.377245
  H     -2.316781    3.286911   -1.174865

 Multiplicity           Mult            ....    1
 Number of Electrons    NEL             ....   84
 Basis Dimension        Dim             ....  315

ORBITAL ENERGIES
----------------

  NO   OCC          E(Eh)            E(eV)
   0   2.0000      -1.007320       -27.4106
   1   2.0000      -0.958422       -26.0800
   2   2.0000      -0.940765       -25.5995
   3   2.0000      -0.900167       -24.4948
   4   2.0000      -0.873246       -23.7622
   5   2.0000      -0.870065       -23.6757
   6   2.0000      -0.820481       -22.3264
   7   2.0000      -0.816149       -22.2086
   8   2.0000      -0.809318       -22.0227
   9   2.0000      -0.757809       -20.6210
  10   2.0000      -0.738515       -20.0960
  11   2.0000      -0.710613       -19.3367
  12   2.0000      -0.663945       -18.0669
  13   2.0000      -0.643078       -17.4990
  14   2.0000      -0.625987       -17.0340
  15   2.0000      -0.599026       -16.3003
  16   2.0000      -0.583682       -15.8828
  17   2.0000      -0.573679       -15.6106
  18   2.0000      -0.571546       -15.5526
  19   2.0000      -0.553362       -15.0577
  20   2.0000      -0.544067       -14.8048
  21   2.0000      -0.541056       -14.7229
  22   2.0000      -0.538322       -14.6485
  23   2.0000      -0.518285       -14.1032
  24   2.0000      -0.513161       -13.9638
  25   2.0000      -0.506427       -13.7806
  26   2.0000      -0.498856       -13.5746
  27   2.0000      -0.495150       -13.4737
  28   2.0000      -0.486720       -13.2443
  29   2.0000      -0.478237       -13.0135
  30   2.0000      -0.471314       -12.8251
  31   2.0000      -0.461935       -12.5699
  32   2.0000      -0.455629       -12.3983
  33   2.0000      -0.451554       -12.2874
  34   2.0000      -0.442504       -12.0411
  35   2.0000      -0.430324       -11.7097
  36   2.0000      -0.414148       -11.2695
  37   2.0000      -0.404053       -10.9948
  38   2.0000      -0.400016       -10.8850
  39   2.0000      -0.360511        -9.8100
  40   2.0000      -0.350004        -9.5241
  41   2.0000      -0.326463        -8.8835
  42   0.0000       0.082069         2.2332
  43   0.0000       0.090619         2.4659
  44   0.0000       0.092006         2.5036
  45   0.0000       0.095551         2.6001
  46   0.0000       0.101769         2.7693

MULLIKEN ATOMIC CHARGES
-----------------------
   0 C :   -0.040895
   1 C :   -0.099246
   2 C :   -0.037361
   3 C :   -0.023515
   4 C :    0.019168
   5 C :   -0.098408
   6 C :   -0.208997
   7 C :    0.016709
   8 C :   -0.038948
   9 C :    0.003154
  10 C :    0.022267
  11 C :   -0.040594
  12 C :   -0.095728
  13 C :    0.006804
  14 C :   -0.032333
  15 H :    0.036749
  16 H :    0.021367
  17 H :    0.027887
  18 H :    0.025894
  19 H :    0.017641
  20 H :    0.031120
  21 H :    0.027848
  22 H :    0.016272
  23 H :    0.031253
  24 H :    0.026618
  25 H :    0.029505
  26 H :    0.035714
  27 H :    0.037463
  28 H :    0.036960
  29 H :    0.032402
  30 H :    0.026589
  31 H :    0.009160
  32 H :    0.020584
  33 H :    0.026100
  34 H :    0.017745
  35 H :    0.014518
  36 H :    0.026602
  37 H :    0.028248
  38 H :    0.043685
Sum of atomic charges:    0.0000000

LOEWDIN ATOMIC CHARGES
----------------------
   0 C :   -0.105633
   1 C :   -0.081232
   2 C :   -0.105386
   3 C :   -0.026854
   4 C :   -0.033544
   5 C :   -0.062198
   6 C :   -0.065386
   7 C :   -0.064869
   8 C :   -0.074912
   9 C :   -0.096302
  10 C :   -0.026522
  11 C :   -0.074090
  12 C :   -0.040111
  13 C :   -0.073451
  14 C :   -0.106436
  15 H :    0.046757
  16 H :    0.040933
  17 H :    0.044050
  18 H :    0.050879
  19 H :    0.038460
  20 H :    0.044553
  21 H :    0.044415
  22 H :    0.038705
  23 H :    0.051103
  24 H :    0.043804
  25 H :    0.047953
  26 H :    0.047602
  27 H :    0.046468
  28 H :    0.046162
  29 H :    0.047426
  30 H :    0.042311
  31 H :    0.041876
  32 H :    0.030727
  33 H :    0.035449
  34 H :    0.031539
  35 H :    0.030698
  36 H :    0.044869
  37 H :    0.049829
  38 H :    0.050359

  Mayer bond orders larger than 0.100000
B(  0-C ,  1-C ) :   0.9909 B(  0-C , 15-H ) :   0.9934 B(  0-C , 16-H ) :   0.9902
B(  0-C , 17-H ) :   0.9945 B(  1-C ,  2-C ) :   0.9864 B(  1-C ,  3-C ) :   1.0280
B(  1-C , 18-H ) :   0.9978 B(  2-C , 19-H ) :   0.9915 B(  2-C , 20-H ) :   0.9953
B(  2-C , 21-H ) :   0.9947 B(  3-C ,  4-C ) :   1.8854 B(  3-C ,  8-C ) :   1.0085
B(  4-C ,  5-C ) :   1.0559 B(  4-C , 22-H ) :   0.9813 B(  5-C ,  6-C ) :   0.9705
B(  5-C , 12-C ) :   1.0104 B(  5-C , 23-H ) :   0.9859 B(  6-C ,  7-C ) :   0.9774
B(  6-C ,  9-C ) :   1.0074 B(  6-C , 10-C ) :   1.0442 B(  7-C ,  8-C ) :   1.0003
B(  7-C , 24-H ) :   0.9962 B(  7-C , 25-H ) :   0.9888 B(  8-C , 26-H ) :   0.9826
B(  8-C , 27-H ) :   0.9747 B(  9-C , 28-H ) :   0.9829 B(  9-C , 29-H ) :   0.9902
B(  9-C , 30-H ) :   0.9885 B( 10-C , 11-C ) :   1.9504 B( 10-C , 31-H ) :   0.9988
B( 11-C , 32-H ) :   0.9908 B( 11-C , 33-H ) :   0.9891 B( 12-C , 13-C ) :   1.9470
B( 12-C , 14-C ) :   1.0281 B( 13-C , 34-H ) :   0.9808 B( 13-C , 35-H ) :   0.9868
B( 14-C , 36-H ) :   0.9806 B( 14-C , 37-H ) :   0.9893 B( 14-C , 38-H ) :   0.9767

Dispersion correction           -0.053438996
FINAL SINGLE POINT ENERGY       -99.903096177624

DIPOLE MOMENT
-------------

Method             : SCF
Type of density    : Electron Density
Multiplicity       :   1
Irrep              :   0
Energy             :   -99.8496571820126206 Eh
Relativity type    :
Basis              : AO
                                X                 Y                 Z
Electronic contribution:     -2.901375007       1.635160190      -3.129932207
Nuclear contribution   :      2.860434142      -1.625532367       3.120650296
                        -----------------------------------------
Total Dipole Moment    :     -0.040940865       0.009627824      -0.009281911
                        -----------------------------------------
Magnitude (a.u.)       :      0.043069749
Magnitude (Debye)      :      0.109474601

VIBRATIONAL FREQUENCIES
-----------------------

Scaling factor for frequencies =  1.000000000  (already applied!)

     0:       0.00 cm**-1
     1:       0.00 cm**-1
     2:       0.00 cm**-1
     3:       0.00 cm**-1
     4:       0.00 cm**-1
     5:       0.00 cm**-1
     6:      37.16 cm**-1
     7:      59.64 cm**-1
     8:      88.03 cm**-1
     9:      93.15 cm**-1
    10:     103.31 cm**-1
    11:     164.02 cm**-1
    12:     177.53 cm**-1
    13:     185.89 cm**-1
    14:     210.21 cm**-1
    15:     217.45 cm**-1
    16:     247.06 cm**-1
    17:     262.06 cm**-1
    18:     282.82 cm**-1
    19:     298.28 cm**-1
    20:     312.37 cm**-1
    21:     332.78 cm**-1
    22:     339.94 cm**-1
    23:     341.78 cm**-1
    24:     382.32 cm**-1
    25:     393.02 cm**-1
    26:     433.81 cm**-1
    27:     463.45 cm**-1
    28:     507.06 cm**-1
    29:     531.12 cm**-1
    30:     554.56 cm**-1
    31:     591.70 cm**-1
    32:     624.45 cm**-1
    33:     674.80 cm**-1
    34:     716.93 cm**-1
    35:     735.78 cm**-1
    36:     776.98 cm**-1
    37:     799.00 cm**-1
    38:     868.73 cm**-1
    39:     914.33 cm**-1
    40:     926.88 cm**-1
    41:     947.40 cm**-1
    42:     950.03 cm**-1
    43:     953.00 cm**-1
    44:     957.30 cm**-1
    45:     962.22 cm**-1
    46:     974.61 cm**-1
    47:     993.08 cm**-1
    48:    1023.90 cm**-1
    49:    1036.66 cm**-1
    50:    1044.11 cm**-1
    51:    1051.21 cm**-1
    52:    1054.15 cm**-1
    53:    1088.87 cm**-1
    54:    1091.17 cm**-1
    55:    1102.46 cm**-1
    56:    1114.32 cm**-1
    57:    1162.33 cm**-1
    58:    1176.35 cm**-1
    59:    1187.71 cm**-1
    60:    1205.27 cm**-1
    61:    1254.95 cm**-1
    62:    1272.60 cm**-1
    63:    1276.25 cm**-1
    64:    1292.39 cm**-1
    65:    1321.29 cm**-1
    66:    1355.29 cm**-1
    67:    1366.42 cm**-1
    68:    1378.22 cm**-1
    69:    1384.96 cm**-1
    70:    1408.83 cm**-1
    71:    1413.01 cm**-1
    72:    1425.36 cm**-1
    73:    1432.31 cm**-1
    74:    1436.49 cm**-1
    75:    1439.74 cm**-1
    76:    1449.40 cm**-1
    77:    1459.42 cm**-1
    78:    1472.69 cm**-1
    79:    1473.12 cm**-1
    80:    1502.98 cm**-1
    81:    1509.23 cm**-1
    82:    1515.81 cm**-1
    83:    1519.87 cm**-1
    84:    1523.19 cm**-1
    85:    1529.95 cm**-1
    86:    1532.67 cm**-1
    87:    1533.74 cm**-1
    88:    1538.34 cm**-1
    89:    1540.43 cm**-1
    90:    1762.12 cm**-1
    91:    1770.36 cm**-1
    92:    1796.52 cm**-1
    93:    3077.71 cm**-1
    94:    3095.16 cm**-1
    95:    3095.72 cm**-1
    96:    3097.43 cm**-1
    97:    3102.20 cm**-1
    98:    3102.37 cm**-1
    99:    3104.26 cm**-1
   100:    3113.37 cm**-1
   101:    3144.46 cm**-1
   102:    3161.48 cm**-1
   103:    3183.69 cm**-1
   104:    3184.01 cm**-1
   105:    3186.64 cm**-1
   106:    3188.83 cm**-1
   107:    3191.43 cm**-1
   108:    3193.11 cm**-1
   109:    3196.02 cm**-1
   110:    3198.32 cm**-1
   111:    3209.77 cm**-1
   112:    3210.60 cm**-1
   113:    3212.29 cm**-1
   114:    3215.12 cm**-1
   115:    3303.32 cm**-1
   116:    3305.60 cm**-1

IR SPECTRUM
-----------

 Mode   freq       eps      Int      T**2         TX        TY        TZ
       cm**-1   L/(mol*cm) km/mol    a.u.
----------------------------------------------------------------------------
  6:     37.16   0.000005    0.03  0.000045  ( 0.001269 -0.003608 -0.005556)
  7:     59.64   0.000001    0.00  0.000003  (-0.000532  0.000583  0.001624)
  8:     88.03   0.000035    0.18  0.000126  ( 0.008292 -0.007519  0.000552)
  9:     93.15   0.000043    0.22  0.000143  (-0.005420  0.002559  0.010365)
 10:    103.31   0.000062    0.31  0.000187  ( 0.000419  0.013079  0.003955)
 11:    164.02   0.000004    0.02  0.000007  ( 0.002075  0.001573 -0.000272)
 12:    177.53   0.000044    0.22  0.000078  ( 0.008310  0.000294  0.002908)
 13:    185.89   0.000067    0.34  0.000113  ( 0.004715  0.008714 -0.003886)
 14:    210.21   0.000017    0.09  0.000026  ( 0.003697  0.001286 -0.003218)
 15:    217.45   0.000111    0.56  0.000159  (-0.007608  0.002202 -0.009832)
 16:    247.06   0.000018    0.09  0.000023  (-0.001167 -0.000882  0.004517)
 17:    262.06   0.000036    0.18  0.000043  ( 0.005568 -0.002007  0.002743)
 18:    282.82   0.000048    0.24  0.000053  (-0.002103 -0.006024 -0.003515)
 19:    298.28   0.000027    0.14  0.000028  (-0.004479  0.000287 -0.002880)
 20:    312.37   0.000079    0.40  0.000079  (-0.005754 -0.002285 -0.006376)
 21:    332.78   0.000028    0.14  0.000027  (-0.001012  0.003641  0.003513)
 22:    339.94   0.000170    0.86  0.000156  (-0.012384  0.001614 -0.000643)
 23:    341.78   0.000049    0.25  0.000045  (-0.001744  0.005808  0.002900)
 24:    382.32   0.000042    0.21  0.000034  ( 0.005782  0.000313  0.000841)
 25:    393.02   0.000165    0.83  0.000131  (-0.000168  0.010364 -0.004857)
 26:    433.81   0.000250    1.27  0.000180  (-0.013411 -0.000239  0.000472)
 27:    463.45   0.000688    3.48  0.000463  ( 0.013800  0.016083  0.003780)
 28:    507.06   0.000450    2.28  0.000277  ( 0.006596  0.013798 -0.006585)
 29:    531.12   0.000812    4.10  0.000477  ( 0.009692 -0.011853 -0.015583)
 30:    554.56   0.001028    5.20  0.000579  (-0.000350 -0.014268 -0.019364)
 31:    591.70   0.000223    1.13  0.000118  ( 0.002897  0.010192  0.002317)
 32:    624.45   0.000687    3.47  0.000343  ( 0.017161  0.005729 -0.003987)
 33:    674.80   0.001174    5.93  0.000543  ( 0.022706  0.004458  0.002696)
 34:    716.93   0.001283    6.48  0.000558  ( 0.020613  0.010056  0.005687)
 35:    735.78   0.000082    0.41  0.000035  (-0.004291 -0.003380  0.002188)
 36:    776.98   0.000108    0.54  0.000043  (-0.004319 -0.000372  0.004946)
 37:    799.00   0.000395    1.99  0.000154  ( 0.003179 -0.011644 -0.002911)
 38:    868.73   0.000601    3.04  0.000216  (-0.001997  0.004257  0.013925)
 39:    914.33   0.000713    3.60  0.000243  ( 0.001991  0.002311  0.015295)
 40:    926.88   0.000088    0.44  0.000030  (-0.000820  0.004898 -0.002208)
 41:    947.40   0.001263    6.38  0.000416  (-0.001702  0.000781  0.020309)
 42:    950.03   0.000756    3.82  0.000248  ( 0.011079  0.009012 -0.006654)
 43:    953.00   0.003751   18.96  0.001228  (-0.020572 -0.027876 -0.005305)
 44:    957.30   0.005944   30.04  0.001938  ( 0.035832  0.022307 -0.012496)
 45:    962.22   0.006017   30.41  0.001952  (-0.042174 -0.005284 -0.012040)
 46:    974.61   0.000346    1.75  0.000111  (-0.004407 -0.005279  0.007960)
 47:    993.08   0.000035    0.18  0.000011  (-0.001763  0.002772 -0.000330)
 48:   1023.90   0.001220    6.16  0.000372  ( 0.008557 -0.011700 -0.012712)
 49:   1036.66   0.000608    3.07  0.000183  ( 0.013365 -0.000900 -0.001887)
 50:   1044.11   0.000273    1.38  0.000082  (-0.008811  0.001265  0.001521)
 51:   1051.21   0.003320   16.78  0.000986  ( 0.025498  0.014587  0.011080)
 52:   1054.15   0.000219    1.11  0.000065  (-0.007028  0.003739 -0.001168)
 53:   1088.87   0.000544    2.75  0.000156  ( 0.004383 -0.005325  0.010415)
 54:   1091.17   0.001286    6.50  0.000368  ( 0.004870 -0.015074 -0.010805)
 55:   1102.46   0.000543    2.74  0.000154  ( 0.008828 -0.005583  0.006668)
 56:   1114.32   0.001224    6.19  0.000343  (-0.005912 -0.016469 -0.006055)
 57:   1162.33   0.000192    0.97  0.000051  ( 0.003479 -0.004378 -0.004491)
 58:   1176.35   0.001082    5.47  0.000287  (-0.015911 -0.003906 -0.004318)
 59:   1187.71   0.001411    7.13  0.000371  (-0.005829 -0.011632 -0.014198)
 60:   1205.27   0.000194    0.98  0.000050  ( 0.000709  0.007038  0.000504)
 61:   1254.95   0.000944    4.77  0.000235  ( 0.011843 -0.009600 -0.001518)
 62:   1272.60   0.000518    2.62  0.000127  ( 0.004440  0.010356  0.000008)
 63:   1276.25   0.000600    3.03  0.000147  ( 0.003861 -0.011029  0.003191)
 64:   1292.39   0.000283    1.43  0.000068  (-0.005413  0.003788 -0.004967)
 65:   1321.29   0.000417    2.10  0.000098  (-0.000674  0.005009  0.008534)
 66:   1355.29   0.002056   10.39  0.000473  (-0.020020  0.006956 -0.004918)
 67:   1366.42   0.000428    2.16  0.000098  (-0.004474  0.004122  0.007792)
 68:   1378.22   0.000070    0.35  0.000016  ( 0.000378 -0.002949 -0.002626)
 69:   1384.96   0.000332    1.68  0.000075  ( 0.005921  0.004889  0.003987)
 70:   1408.83   0.000623    3.15  0.000138  (-0.005221  0.010409 -0.001544)
 71:   1413.01   0.000065    0.33  0.000014  ( 0.001062 -0.001600  0.003274)
 72:   1425.36   0.000709    3.58  0.000155  (-0.002645 -0.009967 -0.006994)
 73:   1432.31   0.002497   12.62  0.000544  (-0.006834  0.010889  0.019462)
 74:   1436.49   0.001589    8.03  0.000345  ( 0.016653  0.007890  0.002382)
 75:   1439.74   0.002159   10.91  0.000468  (-0.014053  0.013674 -0.009133)
 76:   1449.40   0.001497    7.57  0.000322  (-0.012910  0.009423 -0.008178)
 77:   1459.42   0.001007    5.09  0.000215  ( 0.010844 -0.007742  0.006154)
 78:   1472.69   0.001559    7.88  0.000330  (-0.004718  0.015970  0.007286)
 79:   1473.12   0.001368    6.91  0.000290  ( 0.001478  0.016494  0.003935)
 80:   1502.98   0.000820    4.14  0.000170  (-0.008083  0.007856 -0.006572)
 81:   1509.23   0.001234    6.24  0.000255  (-0.013158 -0.008661  0.002660)
 82:   1515.81   0.000200    1.01  0.000041  ( 0.000330  0.003046  0.005632)
 83:   1519.87   0.001616    8.17  0.000332  (-0.003622  0.005535  0.016971)
 84:   1523.19   0.001276    6.45  0.000261  ( 0.006374 -0.008172 -0.012407)
 85:   1529.95   0.001596    8.06  0.000326  ( 0.008757  0.012422 -0.009722)
 86:   1532.67   0.002081   10.52  0.000424  (-0.002819  0.003265 -0.020128)
 87:   1533.74   0.002309   11.67  0.000470  ( 0.004465  0.021204  0.000445)
 88:   1538.34   0.004157   21.01  0.000843  ( 0.005479  0.022606 -0.017382)
 89:   1540.43   0.002318   11.72  0.000470  ( 0.021138  0.004728  0.000706)
 90:   1762.12   0.002537   12.82  0.000449  (-0.003940  0.019696  0.006766)
 91:   1770.36   0.003556   17.97  0.000627  ( 0.006918  0.007299  0.022929)
 92:   1796.52   0.000505    2.55  0.000088  (-0.003389  0.005133 -0.007068)
 93:   3077.71   0.005318   26.88  0.000539  (-0.007933  0.007027 -0.020663)
 94:   3095.16   0.005715   28.88  0.000576  (-0.003166  0.014572  0.018811)
 95:   3095.72   0.004500   22.74  0.000454  (-0.021173  0.002100  0.000947)
 96:   3097.43   0.001782    9.01  0.000180  (-0.008307  0.007601 -0.007265)
 97:   3102.20   0.004525   22.87  0.000455  (-0.014768  0.012107 -0.009513)
 98:   3102.37   0.009534   48.18  0.000959  (-0.021104  0.017344 -0.014587)
 99:   3104.26   0.006573   33.22  0.000661  (-0.024958 -0.005957  0.001550)
100:   3113.37   0.006238   31.52  0.000625  (-0.006857 -0.017605  0.016379)
101:   3144.46   0.001826    9.23  0.000181  ( 0.000487  0.003276 -0.013049)
102:   3161.48   0.003774   19.07  0.000373  ( 0.001139  0.015429  0.011543)
103:   3183.69   0.000129    0.65  0.000013  (-0.002921  0.001196  0.001646)
104:   3184.01   0.002581   13.04  0.000253  (-0.011639 -0.005914  0.009082)
105:   3186.64   0.008702   43.98  0.000852  ( 0.026187  0.011109 -0.006560)
106:   3188.83   0.002255   11.40  0.000221  (-0.004802  0.011706 -0.007782)
107:   3191.43   0.001955    9.88  0.000191  ( 0.003856  0.006198  0.011743)
108:   3193.11   0.005216   26.36  0.000510  (-0.009032  0.017775 -0.010596)
109:   3196.02   0.003665   18.52  0.000358  (-0.000898 -0.012944 -0.013766)
110:   3198.32   0.002766   13.98  0.000270  ( 0.001398 -0.012088  0.011035)
111:   3209.77   0.000470    2.38  0.000046  ( 0.002156 -0.001213 -0.006293)
112:   3210.60   0.003855   19.48  0.000375  ( 0.011410  0.013093 -0.008551)
113:   3212.29   0.003582   18.10  0.000348  ( 0.000886  0.013846  0.012469)
114:   3215.12   0.000900    4.55  0.000087  ( 0.000473 -0.005331 -0.007660)
115:   3303.32   0.001024    5.17  0.000097  (-0.000801  0.000075  0.009802)
116:   3305.60   0.001091    5.51  0.000103  (-0.006197  0.007846  0.001740)

--------------------------
THERMOCHEMISTRY AT 298.15K
--------------------------

Temperature         ...   298.15 K
Pressure            ...     1.00 atm
Total Mass          ...   204.36 AMU
Quasi RRHO          ...     True
Cut-Off Frequency   ...     1.00 cm^-1

Throughout the following assumptions are being made:
  (1) The electronic state is orbitally nondegenerate
  (2) There are no thermally accessible electronically excited states
  (3) Hindered rotations indicated by low frequency modes are not
      treated as such but are treated as vibrations and this may
      cause some error
  (4) All equations used are the standard statistical mechanics
      equations for an ideal gas
  (5) All vibrations are strictly harmonic

freq.      37.16  E(vib)   ...       0.54
freq.      59.64  E(vib)   ...       0.51
freq.      88.03  E(vib)   ...       0.48
freq.      93.15  E(vib)   ...       0.47
freq.     103.31  E(vib)   ...       0.46
freq.     164.02  E(vib)   ...       0.39
freq.     177.53  E(vib)   ...       0.37
freq.     185.89  E(vib)   ...       0.37
freq.     210.21  E(vib)   ...       0.34
freq.     217.45  E(vib)   ...       0.34
freq.     247.06  E(vib)   ...       0.31
freq.     262.06  E(vib)   ...       0.29
freq.     282.82  E(vib)   ...       0.28
freq.     298.28  E(vib)   ...       0.27
freq.     312.37  E(vib)   ...       0.25
freq.     332.78  E(vib)   ...       0.24
freq.     339.94  E(vib)   ...       0.23
freq.     341.78  E(vib)   ...       0.23
freq.     382.32  E(vib)   ...       0.21
freq.     393.02  E(vib)   ...       0.20
freq.     433.81  E(vib)   ...       0.17
freq.     463.45  E(vib)   ...       0.16
freq.     507.06  E(vib)   ...       0.14
freq.     531.12  E(vib)   ...       0.13
freq.     554.56  E(vib)   ...       0.12
freq.     591.70  E(vib)   ...       0.10
freq.     624.45  E(vib)   ...       0.09
freq.     674.80  E(vib)   ...       0.08
freq.     716.93  E(vib)   ...       0.07
freq.     735.78  E(vib)   ...       0.06
freq.     776.98  E(vib)   ...       0.05
freq.     799.00  E(vib)   ...       0.05
freq.     868.73  E(vib)   ...       0.04
freq.     914.33  E(vib)   ...       0.03
freq.     926.88  E(vib)   ...       0.03
freq.     947.40  E(vib)   ...       0.03
freq.     950.03  E(vib)   ...       0.03
freq.     953.00  E(vib)   ...       0.03
freq.     957.30  E(vib)   ...       0.03
freq.     962.22  E(vib)   ...       0.03
freq.     974.61  E(vib)   ...       0.03
freq.     993.08  E(vib)   ...       0.02
freq.    1023.90  E(vib)   ...       0.02
freq.    1036.66  E(vib)   ...       0.02
freq.    1044.11  E(vib)   ...       0.02
freq.    1051.21  E(vib)   ...       0.02
freq.    1054.15  E(vib)   ...       0.02
freq.    1088.87  E(vib)   ...       0.02
freq.    1091.17  E(vib)   ...       0.02
freq.    1102.46  E(vib)   ...       0.02
freq.    1114.32  E(vib)   ...       0.01
freq.    1162.33  E(vib)   ...       0.01
freq.    1176.35  E(vib)   ...       0.01
freq.    1187.71  E(vib)   ...       0.01
freq.    1205.27  E(vib)   ...       0.01
freq.    1254.95  E(vib)   ...       0.01
freq.    1272.60  E(vib)   ...       0.01
freq.    1276.25  E(vib)   ...       0.01
freq.    1292.39  E(vib)   ...       0.01
freq.    1321.29  E(vib)   ...       0.01
freq.    1355.29  E(vib)   ...       0.01
freq.    1366.42  E(vib)   ...       0.01
freq.    1378.22  E(vib)   ...       0.01
freq.    1384.96  E(vib)   ...       0.00
freq.    1408.83  E(vib)   ...       0.00
freq.    1413.01  E(vib)   ...       0.00
freq.    1425.36  E(vib)   ...       0.00
freq.    1432.31  E(vib)   ...       0.00
freq.    1436.49  E(vib)   ...       0.00
freq.    1439.74  E(vib)   ...       0.00
freq.    1449.40  E(vib)   ...       0.00
freq.    1459.42  E(vib)   ...       0.00
freq.    1472.69  E(vib)   ...       0.00
freq.    1473.12  E(vib)   ...       0.00
freq.    1502.98  E(vib)   ...       0.00
freq.    1509.23  E(vib)   ...       0.00
freq.    1515.81  E(vib)   ...       0.00
freq.    1519.87  E(vib)   ...       0.00
freq.    1523.19  E(vib)   ...       0.00
freq.    1529.95  E(vib)   ...       0.00
freq.    1532.67  E(vib)   ...       0.00
freq.    1533.74  E(vib)   ...       0.00
freq.    1538.34  E(vib)   ...       0.00
freq.    1540.43  E(vib)   ...       0.00
freq.    1762.12  E(vib)   ...       0.00
freq.    1770.36  E(vib)   ...       0.00
freq.    1796.52  E(vib)   ...       0.00
freq.    3077.71  E(vib)   ...       0.00
freq.    3095.16  E(vib)   ...       0.00
freq.    3095.72  E(vib)   ...       0.00
freq.    3097.43  E(vib)   ...       0.00
freq.    3102.20  E(vib)   ...       0.00
freq.    3102.37  E(vib)   ...       0.00
freq.    3104.26  E(vib)   ...       0.00
freq.    3113.37  E(vib)   ...       0.00
freq.    3144.46  E(vib)   ...       0.00
freq.    3161.48  E(vib)   ...       0.00
freq.    3183.69  E(vib)   ...       0.00
freq.    3184.01  E(vib)   ...       0.00
freq.    3186.64  E(vib)   ...       0.00
freq.    3188.83  E(vib)   ...       0.00
freq.    3191.43  E(vib)   ...       0.00
freq.    3193.11  E(vib)   ...       0.00
freq.    3196.02  E(vib)   ...       0.00
freq.    3198.32  E(vib)   ...       0.00
freq.    3209.77  E(vib)   ...       0.00
freq.    3210.60  E(vib)   ...       0.00
freq.    3212.29  E(vib)   ...       0.00
freq.    3215.12  E(vib)   ...       0.00
freq.    3303.32  E(vib)   ...       0.00
freq.    3305.60  E(vib)   ...       0.00

------------
INNER ENERGY
------------

The inner energy is: U= E(el) + E(ZPE) + E(vib) + E(rot) + E(trans)
    E(el)   - is the total energy from the electronic structure calculation
              = E(kin-el) + E(nuc-el) + E(el-el) + E(nuc-nuc)
    E(ZPE)  - the the zero temperature vibrational energy from the frequency calculation
    E(vib)  - the the finite temperature correction to E(ZPE) due to population
              of excited vibrational states
    E(rot)  - is the rotational thermal energy
    E(trans)- is the translational thermal energy

Summary of contributions to the inner energy U:
Electronic energy                ...    -99.90309618 Eh
Zero point energy                ...      0.36151200 Eh     226.85 kcal/mol
Thermal vibrational correction   ...      0.01372171 Eh       8.61 kcal/mol
Thermal rotational correction    ...      0.00141627 Eh       0.89 kcal/mol
Thermal translational correction ...      0.00141627 Eh       0.89 kcal/mol
-----------------------------------------------------------------------
Total thermal energy                    -99.52502992 Eh

Summary of corrections to the electronic energy:
(perhaps to be used in another calculation)
Total thermal correction                  0.01655425 Eh      10.39 kcal/mol
Non-thermal (ZPE) correction              0.36151200 Eh     226.85 kcal/mol
-----------------------------------------------------------------------
Total correction                          0.37806626 Eh     237.24 kcal/mol

Rotational constants in cm-1:     0.026975     0.016077     0.011906

                             ****ORCA TERMINATED NORMALLY****
TOTAL RUN TIME: 0 days 0 hours 44 minutes 26 seconds 715 msec
