                         Program Version 6.0.1  -  RELEASE   -
|  1> ! wB97X-3c OPT FREQ TightSCF
|  2> %pal
|  3>   nprocs 40
|  4> end
|  5> * xyz 0 1
|  6> C      2.181313    -0.005247     1.544426
|  7> C      2.088756    -0.141415     0.043493
|  8> C      2.395479     0.888432    -0.780602
|  9> C      2.232445     2.334620    -0.391305
| 10> C      0.838870     2.833053    -0.817843
| 11> C     -0.260660     2.033653    -0.144277
| 12> C     -0.636210     0.837779    -0.667252
| 13> C     -1.474961    -0.144680     0.113259
| 14> C     -0.764231    -1.442558     0.577750
| 15> C     -1.921096    -1.489661    -0.455972
| 16> C     -3.271761    -1.984950     0.078937
| 17> C     -1.686380    -1.714853    -1.961377
| 18> C      0.511396    -2.199861     0.080889
| 19> C      1.695638    -1.460406    -0.583543
| 20> C     -0.833387     2.550204     1.155654
| 21> H      1.381902     0.660794     1.921947
| 22> H      3.171241     0.413110     1.823833
| 23> H      2.082054    -0.988451     2.046442
| 24> H      2.441534     0.707679    -1.851921
| 25> H      2.381150     2.498615     0.696583
| 26> H      3.004172     2.931285    -0.922392
| 27> H      0.748466     3.907978    -0.551425
| 28> H      0.734421     2.772519    -1.923961
| 29> H     -0.232438     0.548114    -1.629218
| 30> H     -2.170309     0.273526     0.872146
| 31> H     -1.095726    -1.767675     1.588102
| 32> H     -4.095549    -1.505207    -0.490253
| 33> H     -3.411471    -1.754808     1.157167
| 34> H     -3.338911    -3.085040    -0.053059
| 35> H     -2.370556    -1.060818    -2.541517
| 36> H     -1.916071    -2.771225    -2.213442
| 37> H     -0.653297    -1.517650    -2.290832
| 38> H      0.214766    -3.044641    -0.577342
| 39> H      0.924991    -2.711369     0.976320
| 40> H      1.466489    -1.329810    -1.660941
| 41> H      2.584261    -2.126982    -0.549305
| 42> H     -0.673703     1.817186     1.972857
| 43> H     -0.351207     3.503133     1.458430
| 44> H     -1.921423     2.735627     1.036121
| 45> *
| 46>
| 47>                          ****END OF INPUT****
 Total Charge           Charge          ....    0
 Multiplicity           Mult            ....    1
 Number of Electrons    NEL             ....   84
Dispersion correction           -0.052597240
FINAL SINGLE POINT ENERGY       -99.852426244774
Dispersion correction             ... done (  0.1 sec)
Dispersion correction           -0.053519491
FINAL SINGLE POINT ENERGY       -99.869969608117
Dispersion correction             ... done (  0.1 sec)
Dispersion correction           -0.053797778
FINAL SINGLE POINT ENERGY       -99.875938243695
Dispersion correction             ... done (  0.0 sec)
FINAL SINGLE POINT ENERGY       -99.879082467449
FINAL SINGLE POINT ENERGY       -99.880255064986
FINAL SINGLE POINT ENERGY       -99.881050951747
FINAL SINGLE POINT ENERGY       -99.881960710113
FINAL SINGLE POINT ENERGY       -99.882817128160
FINAL SINGLE POINT ENERGY       -99.883375358040
FINAL SINGLE POINT ENERGY       -99.883752205901
FINAL SINGLE POINT ENERGY       -99.884048601467
FINAL SINGLE POINT ENERGY       -99.884297287724
FINAL SINGLE POINT ENERGY       -99.884437592584
FINAL SINGLE POINT ENERGY       -99.884500895452
Dispersion correction             ... done (  0.1 sec)
Dispersion correction           -0.053718188
FINAL SINGLE POINT ENERGY       -99.884516817912
Dispersion correction             ... done (  0.1 sec)
Dispersion correction           -0.053715291
FINAL SINGLE POINT ENERGY       -99.884520764126
Dispersion correction             ... done (  0.1 sec)
                    ***********************HURRAY********************

CARTESIAN COORDINATES (ANGSTROEM)
---------------------------------
  C      2.096426    0.056123    1.473179
  C      2.043689   -0.114756   -0.012104
  C      2.217226    0.876537   -0.880588
  C      2.152657    2.334376   -0.579913
  C      0.704235    2.828201   -0.833603
  C     -0.283960    2.023588   -0.038591
  C     -0.683375    0.852389   -0.529211
  C     -1.416918   -0.213166    0.173409
  C     -0.833260   -1.580369    0.505226
  C     -1.916705   -1.449883   -0.517941
  C     -3.293296   -1.935928   -0.145981
  C     -1.584774   -1.686679   -1.966567
  C      0.551419   -2.180868    0.277293
  C      1.682727   -1.491263   -0.496348
  C     -0.575981    2.518729    1.341856
  H      1.095367    0.020797    1.905439
  H      2.559327    0.992697    1.768521
  H      2.671006   -0.753106    1.927027
  H      2.147269    0.627848   -1.936323
  H      2.434803    2.548802    0.449640
  H      2.829401    2.904865   -1.217860
  H      0.642374    3.890344   -0.589316
  H      0.490512    2.734430   -1.899098
  H     -0.374936    0.624635   -1.540723
  H     -2.077706    0.148670    0.951143
  H     -1.217470   -1.937500    1.455031
  H     -4.058295   -1.428659   -0.736258
  H     -3.508238   -1.751750    0.905953
  H     -3.390854   -3.008423   -0.323774
  H     -2.275152   -1.145045   -2.614901
  H     -1.675950   -2.748419   -2.201078
  H     -0.576197   -1.383965   -2.229685
  H      0.403121   -3.158847   -0.188392
  H      0.943238   -2.405099    1.270257
  H      1.462507   -1.448242   -1.562066
  H      2.547555   -2.154455   -0.394684
  H     -1.180503    1.826377    1.921271
  H      0.350009    2.692218    1.893780
  H     -1.101303    3.474793    1.302558

 Multiplicity           Mult            ....    1
 Number of Electrons    NEL             ....   84
 Basis Dimension        Dim             ....  315

ORBITAL ENERGIES
----------------

  NO   OCC          E(Eh)            E(eV)
   0   2.0000      -1.020230       -27.7619
   1   2.0000      -0.970367       -26.4050
   2   2.0000      -0.945737       -25.7348
   3   2.0000      -0.898112       -24.4389
   4   2.0000      -0.869050       -23.6481
   5   2.0000      -0.860624       -23.4188
   6   2.0000      -0.831604       -22.6291
   7   2.0000      -0.819347       -22.2956
   8   2.0000      -0.812547       -22.1105
   9   2.0000      -0.770399       -20.9636
  10   2.0000      -0.747896       -20.3513
  11   2.0000      -0.674716       -18.3600
  12   2.0000      -0.653783       -17.7903
  13   2.0000      -0.637276       -17.3412
  14   2.0000      -0.634583       -17.2679
  15   2.0000      -0.605190       -16.4681
  16   2.0000      -0.581919       -15.8348
  17   2.0000      -0.580491       -15.7960
  18   2.0000      -0.564910       -15.3720
  19   2.0000      -0.560616       -15.2551
  20   2.0000      -0.544497       -14.8165
  21   2.0000      -0.535282       -14.5658
  22   2.0000      -0.524761       -14.2795
  23   2.0000      -0.516173       -14.0458
  24   2.0000      -0.509236       -13.8570
  25   2.0000      -0.504228       -13.7207
  26   2.0000      -0.493607       -13.4317
  27   2.0000      -0.493080       -13.4174
  28   2.0000      -0.488687       -13.2979
  29   2.0000      -0.480248       -13.0682
  30   2.0000      -0.473286       -12.8788
  31   2.0000      -0.466891       -12.7047
  32   2.0000      -0.464046       -12.6273
  33   2.0000      -0.443892       -12.0789
  34   2.0000      -0.437308       -11.8997
  35   2.0000      -0.433642       -11.8000
  36   2.0000      -0.422052       -11.4846
  37   2.0000      -0.416167       -11.3245
  38   2.0000      -0.397833       -10.8256
  39   2.0000      -0.359158        -9.7732
  40   2.0000      -0.328077        -8.9274
  41   2.0000      -0.299768        -8.1571
  42   0.0000       0.081375         2.2143
  43   0.0000       0.086114         2.3433
  44   0.0000       0.088909         2.4193
  45   0.0000       0.098763         2.6875
  46   0.0000       0.108647         2.9564

MULLIKEN ATOMIC CHARGES
-----------------------
   0 C :   -0.034877
   1 C :   -0.035488
   2 C :   -0.034351
   3 C :   -0.051770
   4 C :   -0.049849
   5 C :   -0.073993
   6 C :    0.015348
   7 C :   -0.054830
   8 C :   -0.039006
   9 C :   -0.081662
  10 C :   -0.027640
  11 C :   -0.019764
  12 C :   -0.056549
  13 C :   -0.043469
  14 C :   -0.043538
  15 H :    0.034461
  16 H :    0.027189
  17 H :    0.034919
  18 H :    0.019451
  19 H :    0.018181
  20 H :    0.037182
  21 H :    0.026462
  22 H :    0.039383
  23 H :   -0.012637
  24 H :    0.031822
  25 H :    0.027447
  26 H :    0.028446
  27 H :    0.018177
  28 H :    0.025771
  29 H :    0.037257
  30 H :    0.028374
  31 H :    0.007467
  32 H :    0.035359
  33 H :    0.026604
  34 H :    0.005234
  35 H :    0.046294
  36 H :    0.020696
  37 H :    0.023979
  38 H :    0.043920
Sum of atomic charges:    0.0000000

LOEWDIN ATOMIC CHARGES
----------------------
   0 C :   -0.102353
   1 C :   -0.036369
   2 C :   -0.057688
   3 C :   -0.082540
   4 C :   -0.073509
   5 C :   -0.050349
   6 C :   -0.037521
   7 C :   -0.054431
   8 C :   -0.045387
   9 C :   -0.073649
  10 C :   -0.102951
  11 C :   -0.098251
  12 C :   -0.079725
  13 C :   -0.079585
  14 C :   -0.109931
  15 H :    0.049442
  16 H :    0.043393
  17 H :    0.049818
  18 H :    0.033728
  19 H :    0.038118
  20 H :    0.046972
  21 H :    0.045641
  22 H :    0.049176
  23 H :    0.036221
  24 H :    0.044545
  25 H :    0.045251
  26 H :    0.046264
  27 H :    0.045124
  28 H :    0.044412
  29 H :    0.048574
  30 H :    0.047334
  31 H :    0.038362
  32 H :    0.051162
  33 H :    0.048308
  34 H :    0.039794
  35 H :    0.053862
  36 H :    0.043743
  37 H :    0.045142
  38 H :    0.049850

  Mayer bond orders larger than 0.100000
B(  0-C ,  1-C ) :   1.0277 B(  0-C , 15-H ) :   0.9733 B(  0-C , 16-H ) :   0.9901
B(  0-C , 17-H ) :   0.9820 B(  1-C ,  2-C ) :   1.8913 B(  1-C , 13-C ) :   1.0221
B(  2-C ,  3-C ) :   1.0303 B(  2-C , 18-H ) :   0.9842 B(  3-C ,  4-C ) :   0.9547
B(  3-C , 19-H ) :   0.9944 B(  3-C , 20-H ) :   0.9930 B(  4-C ,  5-C ) :   1.0236
B(  4-C , 21-H ) :   0.9953 B(  4-C , 22-H ) :   0.9935 B(  5-C ,  6-C ) :   1.8760
B(  5-C , 14-C ) :   1.0315 B(  6-C ,  7-C ) :   1.0840 B(  6-C , 23-H ) :   0.9864
B(  7-C ,  8-C ) :   0.9220 B(  7-C ,  9-C ) :   0.9261 B(  7-C , 24-H ) :   0.9972
B(  8-C ,  9-C ) :   0.9251 B(  8-C , 12-C ) :   1.0107 B(  8-C , 25-H ) :   1.0039
B(  9-C , 10-C ) :   1.0247 B(  9-C , 11-C ) :   1.0200 B( 10-C , 26-H ) :   0.9886
B( 10-C , 27-H ) :   0.9896 B( 10-C , 28-H ) :   0.9876 B( 11-C , 29-H ) :   0.9867
B( 11-C , 30-H ) :   0.9864 B( 11-C , 31-H ) :   0.9897 B( 12-C , 13-C ) :   0.9807
B( 12-C , 32-H ) :   0.9930 B( 12-C , 33-H ) :   0.9954 B( 13-C , 34-H ) :   0.9975
B( 13-C , 35-H ) :   0.9811 B( 14-C , 36-H ) :   0.9902 B( 14-C , 37-H ) :   0.9772
B( 14-C , 38-H ) :   0.9792

Dispersion correction           -0.053718226
FINAL SINGLE POINT ENERGY       -99.884521682319

DIPOLE MOMENT
-------------

Method             : SCF
Type of density    : Electron Density
Multiplicity       :   1
Irrep              :   0
Energy             :   -99.8308034562167848 Eh
Relativity type    :
Basis              : AO
                                X                 Y                 Z
Electronic contribution:      2.409423438       2.250927091      -1.910443682
Nuclear contribution   :     -2.475011644      -2.408601017       2.085427806
                        -----------------------------------------
Total Dipole Moment    :     -0.065588206      -0.157673926       0.174984124
                        -----------------------------------------
Magnitude (a.u.)       :      0.244504240
Magnitude (Debye)      :      0.621480389

VIBRATIONAL FREQUENCIES
-----------------------

Scaling factor for frequencies =  1.000000000  (already applied!)

     0:       0.00 cm**-1
     1:       0.00 cm**-1
     2:       0.00 cm**-1
     3:       0.00 cm**-1
     4:       0.00 cm**-1
     5:       0.00 cm**-1
     6:      63.18 cm**-1
     7:     104.71 cm**-1
     8:     104.82 cm**-1
     9:     144.11 cm**-1
    10:     149.28 cm**-1
    11:     165.00 cm**-1
    12:     170.12 cm**-1
    13:     192.92 cm**-1
    14:     212.01 cm**-1
    15:     213.99 cm**-1
    16:     238.19 cm**-1
    17:     252.32 cm**-1
    18:     275.62 cm**-1
    19:     291.46 cm**-1
    20:     336.70 cm**-1
    21:     362.33 cm**-1
    22:     380.99 cm**-1
    23:     397.31 cm**-1
    24:     432.07 cm**-1
    25:     455.91 cm**-1
    26:     461.99 cm**-1
    27:     492.58 cm**-1
    28:     512.94 cm**-1
    29:     525.19 cm**-1
    30:     559.34 cm**-1
    31:     597.97 cm**-1
    32:     665.35 cm**-1
    33:     716.80 cm**-1
    34:     769.64 cm**-1
    35:     790.18 cm**-1
    36:     828.38 cm**-1
    37:     864.18 cm**-1
    38:     900.62 cm**-1
    39:     907.52 cm**-1
    40:     926.38 cm**-1
    41:     936.89 cm**-1
    42:     960.57 cm**-1
    43:     986.92 cm**-1
    44:     989.46 cm**-1
    45:    1009.81 cm**-1
    46:    1014.75 cm**-1
    47:    1019.46 cm**-1
    48:    1034.37 cm**-1
    49:    1043.86 cm**-1
    50:    1062.98 cm**-1
    51:    1078.59 cm**-1
    52:    1081.81 cm**-1
    53:    1092.64 cm**-1
    54:    1126.06 cm**-1
    55:    1137.16 cm**-1
    56:    1175.23 cm**-1
    57:    1191.03 cm**-1
    58:    1217.03 cm**-1
    59:    1230.60 cm**-1
    60:    1239.36 cm**-1
    61:    1244.84 cm**-1
    62:    1265.27 cm**-1
    63:    1286.06 cm**-1
    64:    1296.04 cm**-1
    65:    1315.99 cm**-1
    66:    1350.64 cm**-1
    67:    1367.69 cm**-1
    68:    1386.11 cm**-1
    69:    1403.81 cm**-1
    70:    1412.89 cm**-1
    71:    1417.81 cm**-1
    72:    1436.45 cm**-1
    73:    1439.60 cm**-1
    74:    1449.14 cm**-1
    75:    1456.45 cm**-1
    76:    1459.42 cm**-1
    77:    1471.55 cm**-1
    78:    1504.13 cm**-1
    79:    1506.40 cm**-1
    80:    1510.70 cm**-1
    81:    1511.94 cm**-1
    82:    1513.56 cm**-1
    83:    1515.57 cm**-1
    84:    1520.94 cm**-1
    85:    1523.28 cm**-1
    86:    1525.52 cm**-1
    87:    1527.75 cm**-1
    88:    1534.93 cm**-1
    89:    1537.08 cm**-1
    90:    1558.66 cm**-1
    91:    1791.65 cm**-1
    92:    1797.37 cm**-1
    93:    3078.48 cm**-1
    94:    3087.49 cm**-1
    95:    3092.53 cm**-1
    96:    3094.69 cm**-1
    97:    3097.56 cm**-1
    98:    3098.56 cm**-1
    99:    3102.80 cm**-1
   100:    3118.51 cm**-1
   101:    3137.27 cm**-1
   102:    3158.73 cm**-1
   103:    3160.77 cm**-1
   104:    3163.45 cm**-1
   105:    3169.53 cm**-1
   106:    3170.29 cm**-1
   107:    3171.84 cm**-1
   108:    3176.59 cm**-1
   109:    3181.16 cm**-1
   110:    3188.37 cm**-1
   111:    3190.41 cm**-1
   112:    3207.66 cm**-1
   113:    3218.73 cm**-1
   114:    3220.58 cm**-1
   115:    3223.78 cm**-1
   116:    3242.28 cm**-1

IR SPECTRUM
-----------

 Mode   freq       eps      Int      T**2         TX        TY        TZ
       cm**-1   L/(mol*cm) km/mol    a.u.
----------------------------------------------------------------------------
  6:     63.18   0.000014    0.07  0.000071  ( 0.007289  0.001011  0.004132)
  7:    104.71   0.000007    0.03  0.000021  ( 0.004410 -0.000591  0.000897)
  8:    104.82   0.000052    0.26  0.000155  (-0.006908 -0.006047 -0.008413)
  9:    144.11   0.000006    0.03  0.000013  ( 0.001185 -0.003424 -0.000572)
 10:    149.28   0.000122    0.62  0.000256  ( 0.013725 -0.008208  0.000199)
 11:    165.00   0.000058    0.30  0.000110  ( 0.010488 -0.000687  0.000162)
 12:    170.12   0.000048    0.24  0.000088  ( 0.009287  0.000903 -0.000978)
 13:    192.92   0.000051    0.26  0.000083  (-0.008585 -0.002751 -0.001321)
 14:    212.01   0.000005    0.03  0.000007  (-0.001232 -0.001259 -0.002080)
 15:    213.99   0.000002    0.01  0.000003  (-0.001198 -0.000578 -0.001088)
 16:    238.19   0.000019    0.10  0.000025  (-0.003985  0.002931 -0.000528)
 17:    252.32   0.000012    0.06  0.000014  (-0.003053  0.001052  0.001952)
 18:    275.62   0.000084    0.43  0.000096  (-0.009653  0.001269 -0.000883)
 19:    291.46   0.000044    0.22  0.000048  (-0.004506 -0.004536  0.002586)
 20:    336.70   0.000147    0.74  0.000136  ( 0.011353 -0.002423  0.001229)
 21:    362.33   0.000043    0.22  0.000037  ( 0.001080  0.005739  0.001810)
 22:    380.99   0.000127    0.64  0.000104  (-0.006277 -0.007913  0.001356)
 23:    397.31   0.000119    0.60  0.000093  (-0.005319 -0.007785 -0.002089)
 24:    432.07   0.000357    1.80  0.000258  (-0.010832  0.011742  0.001598)
 25:    455.91   0.000190    0.96  0.000130  ( 0.007609  0.008267 -0.002030)
 26:    461.99   0.000460    2.32  0.000310  (-0.014533  0.009727 -0.002135)
 27:    492.58   0.000811    4.10  0.000514  ( 0.008590 -0.020231 -0.005521)
 28:    512.94   0.001600    8.08  0.000973  (-0.024001  0.013333 -0.014810)
 29:    525.19   0.000441    2.23  0.000262  ( 0.000887 -0.015732  0.003727)
 30:    559.34   0.001170    5.91  0.000653  (-0.019377  0.013581  0.009639)
 31:    597.97   0.000413    2.09  0.000215  ( 0.008191 -0.010569  0.006050)
 32:    665.35   0.000383    1.93  0.000179  (-0.002764 -0.011178 -0.006848)
 33:    716.80   0.000135    0.68  0.000059  ( 0.005647  0.004157  0.003101)
 34:    769.64   0.001292    6.53  0.000524  (-0.007262 -0.016554  0.014033)
 35:    790.18   0.000328    1.66  0.000130  (-0.004548 -0.005487 -0.008873)
 36:    828.38   0.000175    0.89  0.000066  ( 0.005208 -0.002239 -0.005821)
 37:    864.18   0.002160   10.91  0.000780  ( 0.021399 -0.003226 -0.017652)
 38:    900.62   0.002892   14.62  0.001002  ( 0.031237  0.005100 -0.000612)
 39:    907.52   0.000752    3.80  0.000259  ( 0.010595  0.011673 -0.003161)
 40:    926.38   0.001727    8.73  0.000582  ( 0.021840  0.002868  0.009830)
 41:    936.89   0.000264    1.33  0.000088  ( 0.006499  0.002475 -0.006279)
 42:    960.57   0.000212    1.07  0.000069  ( 0.000121  0.001098  0.008231)
 43:    986.92   0.001159    5.86  0.000367  ( 0.003738  0.002604  0.018598)
 44:    989.46   0.000768    3.88  0.000242  ( 0.013995  0.004677 -0.004956)
 45:   1009.81   0.000498    2.52  0.000154  (-0.011271 -0.005016 -0.001293)
 46:   1014.75   0.000769    3.89  0.000236  (-0.015305  0.001474 -0.000144)
 47:   1019.46   0.000839    4.24  0.000257  (-0.003103 -0.014449 -0.006193)
 48:   1034.37   0.000383    1.93  0.000115  (-0.005659 -0.000152 -0.009134)
 49:   1043.86   0.000355    1.79  0.000106  (-0.009672 -0.003170 -0.001570)
 50:   1062.98   0.000085    0.43  0.000025  (-0.004635 -0.001067 -0.001531)
 51:   1078.59   0.001503    7.59  0.000435  ( 0.009695  0.018446  0.000720)
 52:   1081.81   0.000084    0.43  0.000024  (-0.003220  0.002692 -0.002593)
 53:   1092.64   0.003007   15.20  0.000859  ( 0.006541  0.028212 -0.004496)
 54:   1126.06   0.000305    1.54  0.000085  ( 0.002251 -0.008538  0.002568)
 55:   1137.16   0.000829    4.19  0.000228  ( 0.005017  0.013973  0.002667)
 56:   1175.23   0.000508    2.57  0.000135  ( 0.006604 -0.009409  0.001686)
 57:   1191.03   0.000377    1.91  0.000099  (-0.002935 -0.009385  0.001459)
 58:   1217.03   0.002649   13.39  0.000679  (-0.004305 -0.025693 -0.000803)
 59:   1230.60   0.000682    3.45  0.000173  (-0.004027 -0.012320 -0.002245)
 60:   1239.36   0.000244    1.23  0.000061  ( 0.001377  0.007717 -0.000164)
 61:   1244.84   0.000488    2.47  0.000122  ( 0.007755  0.005898 -0.005238)
 62:   1265.27   0.000337    1.70  0.000083  (-0.005530 -0.002546  0.006780)
 63:   1286.06   0.000101    0.51  0.000024  (-0.003571 -0.003408  0.000215)
 64:   1296.04   0.000860    4.35  0.000207  (-0.004422 -0.013523 -0.002160)
 65:   1315.99   0.000119    0.60  0.000028  (-0.004437  0.000904 -0.002777)
 66:   1350.64   0.000048    0.24  0.000011  (-0.001637  0.002626  0.001208)
 67:   1367.69   0.000192    0.97  0.000044  (-0.003227 -0.002030 -0.005415)
 68:   1386.11   0.000060    0.30  0.000014  (-0.001118  0.000293  0.003499)
 69:   1403.81   0.000233    1.18  0.000052  ( 0.001655  0.006854  0.001410)
 70:   1412.89   0.000307    1.55  0.000068  (-0.007513  0.003310  0.000575)
 71:   1417.81   0.000288    1.45  0.000063  ( 0.004840 -0.001075 -0.006224)
 72:   1436.45   0.001082    5.47  0.000235  (-0.005503  0.001187 -0.014260)
 73:   1439.60   0.000519    2.62  0.000112  ( 0.006091 -0.001067 -0.008613)
 74:   1449.14   0.001842    9.31  0.000397  (-0.017020 -0.001640  0.010209)
 75:   1456.45   0.000244    1.23  0.000052  (-0.005939 -0.002012 -0.003595)
 76:   1459.42   0.001899    9.59  0.000406  (-0.001037  0.004969  0.019499)
 77:   1471.55   0.001827    9.23  0.000387  ( 0.003724 -0.008769 -0.017221)
 78:   1504.13   0.002715   13.72  0.000563  (-0.004137  0.015744 -0.017272)
 79:   1506.40   0.002224   11.24  0.000461  ( 0.011852  0.017864 -0.001029)
 80:   1510.70   0.000528    2.67  0.000109  (-0.006870  0.003546  0.007023)
 81:   1511.94   0.000304    1.54  0.000063  ( 0.004624 -0.002861 -0.005762)
 82:   1513.56   0.000536    2.71  0.000110  ( 0.001808 -0.010139  0.002088)
 83:   1515.57   0.000923    4.66  0.000190  ( 0.013095 -0.000692  0.004254)
 84:   1520.94   0.000783    3.96  0.000161  (-0.006712  0.005985  0.008931)
 85:   1523.28   0.003349   16.93  0.000686  (-0.000266 -0.006129 -0.025466)
 86:   1525.52   0.000710    3.59  0.000145  ( 0.003413  0.010956 -0.003691)
 87:   1527.75   0.001317    6.65  0.000269  (-0.013013  0.009278 -0.003676)
 88:   1534.93   0.002691   13.60  0.000547  ( 0.020157 -0.011195  0.003929)
 89:   1537.08   0.003070   15.51  0.000623  ( 0.021739  0.010180  0.006859)
 90:   1558.66   0.000192    0.97  0.000038  ( 0.005768 -0.000351  0.002245)
 91:   1791.65   0.001125    5.69  0.000196  (-0.000402 -0.008459  0.011147)
 92:   1797.37   0.000577    2.92  0.000100  (-0.007378 -0.005400  0.004075)
 93:   3078.48   0.002467   12.47  0.000250  (-0.011993  0.006369  0.008103)
 94:   3087.49   0.009519   48.11  0.000962  ( 0.028238  0.012150 -0.004140)
 95:   3092.53   0.007418   37.49  0.000749  ( 0.002087 -0.018159 -0.020357)
 96:   3094.69   0.007119   35.98  0.000718  ( 0.011677 -0.024105  0.000699)
 97:   3097.56   0.011138   56.29  0.001122  ( 0.009735 -0.006013  0.031483)
 98:   3098.56   0.009425   47.63  0.000949  ( 0.002668  0.029424  0.008734)
 99:   3102.80   0.006408   32.38  0.000644  ( 0.008468 -0.021208  0.011090)
100:   3118.51   0.012167   61.49  0.001218  ( 0.019658  0.028525 -0.004180)
101:   3137.27   0.001333    6.74  0.000133  ( 0.006304  0.005782  0.007709)
102:   3158.73   0.002760   13.95  0.000273  (-0.004279 -0.014271 -0.007121)
103:   3160.77   0.003118   15.76  0.000308  ( 0.015025 -0.008744  0.002378)
104:   3163.45   0.004692   23.71  0.000463  (-0.011281 -0.002206 -0.018186)
105:   3169.53   0.001658    8.38  0.000163  ( 0.011267 -0.005978  0.000728)
106:   3170.29   0.000011    0.05  0.000001  (-0.000567 -0.000412  0.000748)
107:   3171.84   0.007604   38.43  0.000748  ( 0.008983 -0.025247  0.005475)
108:   3176.59   0.000450    2.27  0.000044  ( 0.000150 -0.000002 -0.006648)
109:   3181.16   0.003066   15.49  0.000301  (-0.002350 -0.012283  0.012016)
110:   3188.37   0.003953   19.98  0.000387  (-0.004802 -0.003308 -0.018785)
111:   3190.41   0.007897   39.91  0.000772  (-0.001413  0.003370  0.027552)
112:   3207.66   0.001237    6.25  0.000120  (-0.002076  0.008537  0.006571)
113:   3218.73   0.003449   17.43  0.000334  (-0.012753 -0.004940  0.012139)
114:   3220.58   0.003054   15.43  0.000296  (-0.008413 -0.013983 -0.005444)
115:   3223.78   0.001793    9.06  0.000174  ( 0.011970  0.005440  0.000827)
116:   3242.28   0.003312   16.74  0.000319  (-0.010875 -0.004032  0.013573)

--------------------------
THERMOCHEMISTRY AT 298.15K
--------------------------

Temperature         ...   298.15 K
Pressure            ...     1.00 atm
Total Mass          ...   204.36 AMU
Quasi RRHO          ...     True
Cut-Off Frequency   ...     1.00 cm^-1

Throughout the following assumptions are being made:
  (1) The electronic state is orbitally nondegenerate
  (2) There are no thermally accessible electronically excited states
  (3) Hindered rotations indicated by low frequency modes are not
      treated as such but are treated as vibrations and this may
      cause some error
  (4) All equations used are the standard statistical mechanics
      equations for an ideal gas
  (5) All vibrations are strictly harmonic

freq.      63.18  E(vib)   ...       0.51
freq.     104.71  E(vib)   ...       0.46
freq.     104.82  E(vib)   ...       0.46
freq.     144.11  E(vib)   ...       0.41
freq.     149.28  E(vib)   ...       0.40
freq.     165.00  E(vib)   ...       0.39
freq.     170.12  E(vib)   ...       0.38
freq.     192.92  E(vib)   ...       0.36
freq.     212.01  E(vib)   ...       0.34
freq.     213.99  E(vib)   ...       0.34
freq.     238.19  E(vib)   ...       0.32
freq.     252.32  E(vib)   ...       0.30
freq.     275.62  E(vib)   ...       0.28
freq.     291.46  E(vib)   ...       0.27
freq.     336.70  E(vib)   ...       0.24
freq.     362.33  E(vib)   ...       0.22
freq.     380.99  E(vib)   ...       0.21
freq.     397.31  E(vib)   ...       0.20
freq.     432.07  E(vib)   ...       0.18
freq.     455.91  E(vib)   ...       0.16
freq.     461.99  E(vib)   ...       0.16
freq.     492.58  E(vib)   ...       0.14
freq.     512.94  E(vib)   ...       0.13
freq.     525.19  E(vib)   ...       0.13
freq.     559.34  E(vib)   ...       0.12
freq.     597.97  E(vib)   ...       0.10
freq.     665.35  E(vib)   ...       0.08
freq.     716.80  E(vib)   ...       0.07
freq.     769.64  E(vib)   ...       0.05
freq.     790.18  E(vib)   ...       0.05
freq.     828.38  E(vib)   ...       0.04
freq.     864.18  E(vib)   ...       0.04
freq.     900.62  E(vib)   ...       0.03
freq.     907.52  E(vib)   ...       0.03
freq.     926.38  E(vib)   ...       0.03
freq.     936.89  E(vib)   ...       0.03
freq.     960.57  E(vib)   ...       0.03
freq.     986.92  E(vib)   ...       0.02
freq.     989.46  E(vib)   ...       0.02
freq.    1009.81  E(vib)   ...       0.02
freq.    1014.75  E(vib)   ...       0.02
freq.    1019.46  E(vib)   ...       0.02
freq.    1034.37  E(vib)   ...       0.02
freq.    1043.86  E(vib)   ...       0.02
freq.    1062.98  E(vib)   ...       0.02
freq.    1078.59  E(vib)   ...       0.02
freq.    1081.81  E(vib)   ...       0.02
freq.    1092.64  E(vib)   ...       0.02
freq.    1126.06  E(vib)   ...       0.01
freq.    1137.16  E(vib)   ...       0.01
freq.    1175.23  E(vib)   ...       0.01
freq.    1191.03  E(vib)   ...       0.01
freq.    1217.03  E(vib)   ...       0.01
freq.    1230.60  E(vib)   ...       0.01
freq.    1239.36  E(vib)   ...       0.01
freq.    1244.84  E(vib)   ...       0.01
freq.    1265.27  E(vib)   ...       0.01
freq.    1286.06  E(vib)   ...       0.01
freq.    1296.04  E(vib)   ...       0.01
freq.    1315.99  E(vib)   ...       0.01
freq.    1350.64  E(vib)   ...       0.01
freq.    1367.69  E(vib)   ...       0.01
freq.    1386.11  E(vib)   ...       0.00
freq.    1403.81  E(vib)   ...       0.00
freq.    1412.89  E(vib)   ...       0.00
freq.    1417.81  E(vib)   ...       0.00
freq.    1436.45  E(vib)   ...       0.00
freq.    1439.60  E(vib)   ...       0.00
freq.    1449.14  E(vib)   ...       0.00
freq.    1456.45  E(vib)   ...       0.00
freq.    1459.42  E(vib)   ...       0.00
freq.    1471.55  E(vib)   ...       0.00
freq.    1504.13  E(vib)   ...       0.00
freq.    1506.40  E(vib)   ...       0.00
freq.    1510.70  E(vib)   ...       0.00
freq.    1511.94  E(vib)   ...       0.00
freq.    1513.56  E(vib)   ...       0.00
freq.    1515.57  E(vib)   ...       0.00
freq.    1520.94  E(vib)   ...       0.00
freq.    1523.28  E(vib)   ...       0.00
freq.    1525.52  E(vib)   ...       0.00
freq.    1527.75  E(vib)   ...       0.00
freq.    1534.93  E(vib)   ...       0.00
freq.    1537.08  E(vib)   ...       0.00
freq.    1558.66  E(vib)   ...       0.00
freq.    1791.65  E(vib)   ...       0.00
freq.    1797.37  E(vib)   ...       0.00
freq.    3078.48  E(vib)   ...       0.00
freq.    3087.49  E(vib)   ...       0.00
freq.    3092.53  E(vib)   ...       0.00
freq.    3094.69  E(vib)   ...       0.00
freq.    3097.56  E(vib)   ...       0.00
freq.    3098.56  E(vib)   ...       0.00
freq.    3102.80  E(vib)   ...       0.00
freq.    3118.51  E(vib)   ...       0.00
freq.    3137.27  E(vib)   ...       0.00
freq.    3158.73  E(vib)   ...       0.00
freq.    3160.77  E(vib)   ...       0.00
freq.    3163.45  E(vib)   ...       0.00
freq.    3169.53  E(vib)   ...       0.00
freq.    3170.29  E(vib)   ...       0.00
freq.    3171.84  E(vib)   ...       0.00
freq.    3176.59  E(vib)   ...       0.00
freq.    3181.16  E(vib)   ...       0.00
freq.    3188.37  E(vib)   ...       0.00
freq.    3190.41  E(vib)   ...       0.00
freq.    3207.66  E(vib)   ...       0.00
freq.    3218.73  E(vib)   ...       0.00
freq.    3220.58  E(vib)   ...       0.00
freq.    3223.78  E(vib)   ...       0.00
freq.    3242.28  E(vib)   ...       0.00

------------
INNER ENERGY
------------

The inner energy is: U= E(el) + E(ZPE) + E(vib) + E(rot) + E(trans)
    E(el)   - is the total energy from the electronic structure calculation
              = E(kin-el) + E(nuc-el) + E(el-el) + E(nuc-nuc)
    E(ZPE)  - the the zero temperature vibrational energy from the frequency calculation
    E(vib)  - the the finite temperature correction to E(ZPE) due to population
              of excited vibrational states
    E(rot)  - is the rotational thermal energy
    E(trans)- is the translational thermal energy

Summary of contributions to the inner energy U:
Electronic energy                ...    -99.88452168 Eh
Zero point energy                ...      0.36378232 Eh     228.28 kcal/mol
Thermal vibrational correction   ...      0.01292049 Eh       8.11 kcal/mol
Thermal rotational correction    ...      0.00141627 Eh       0.89 kcal/mol
Thermal translational correction ...      0.00141627 Eh       0.89 kcal/mol
-----------------------------------------------------------------------
Total thermal energy                    -99.50498633 Eh

Summary of corrections to the electronic energy:
(perhaps to be used in another calculation)
Total thermal correction                  0.01575303 Eh       9.89 kcal/mol
Non-thermal (ZPE) correction              0.36378232 Eh     228.28 kcal/mol
-----------------------------------------------------------------------
Total correction                          0.37953535 Eh     238.16 kcal/mol

Rotational constants in cm-1:     0.029303     0.016282     0.013461

                             ****ORCA TERMINATED NORMALLY****
TOTAL RUN TIME: 0 days 0 hours 36 minutes 58 seconds 887 msec
