                         Program Version 6.0.1  -  RELEASE   -
|  1> ! wB97X-3c OPT FREQ TightSCF
|  2> %pal
|  3>   nprocs 40
|  4> end
|  5> * xyz 0 1
|  6> C     -2.695580     1.962941    -0.051316
|  7> C     -2.439771     0.450420    -0.205905
|  8> C     -3.578828    -0.313727     0.486080
|  9> C     -1.057412    -0.062049     0.311503
| 10> C     -0.770620    -1.574407     0.301693
| 11> C      0.720654    -1.749508     0.021174
| 12> C      1.140409    -0.458730    -0.697755
| 13> C      0.191254     0.651222    -0.209476
| 14> C     -0.211461     0.766996     1.269354
| 15> C      0.922266    -0.630400    -2.212565
| 16> O      2.527151    -0.124838    -0.521721
| 17> C      3.219566     0.114510     0.673585
| 18> O      2.670382    -0.017118     1.797233
| 19> C      4.649704     0.530096     0.601310
| 20> H     -3.659818     2.230077    -0.534447
| 21> H     -1.911848     2.568302    -0.546427
| 22> H     -2.764032     2.248314     1.019759
| 23> H     -2.490398     0.216627    -1.292074
| 24> H     -3.526017    -0.172898     1.587154
| 25> H     -3.523230    -1.398719     0.260094
| 26> H     -4.565719     0.047743     0.125365
| 27> H     -1.350764    -2.062449    -0.511212
| 28> H     -1.051082    -2.033387     1.274035
| 29> H      0.911528    -2.661581    -0.586434
| 30> H      1.259478    -1.871169     0.982408
| 31> H      0.016399     1.539568    -0.849450
| 32> H      0.307839     0.145675     2.022540
| 33> H     -0.597199     1.766303     1.547530
| 34> H      1.571882    -1.441853    -2.605550
| 35> H     -0.135888    -0.879743    -2.444976
| 36> H      1.186510     0.307686    -2.746806
| 37> H      5.225077    -0.222743     0.023490
| 38> H      5.086937     0.615065     1.619020
| 39> H      4.722630     1.513772     0.092786
| 40> *
| 41>
| 42>                          ****END OF INPUT****
 Total Charge           Charge          ....    0
 Multiplicity           Mult            ....    1
 Number of Electrons    NEL             ....   80
Dispersion correction           -0.041796756
FINAL SINGLE POINT ENERGY      -112.534656078020
Dispersion correction             ... done (  0.1 sec)
Dispersion correction           -0.042666580
FINAL SINGLE POINT ENERGY      -112.560670027520
Dispersion correction             ... done (  0.1 sec)
Dispersion correction           -0.043010341
FINAL SINGLE POINT ENERGY      -112.565523164016
Dispersion correction             ... done (  0.1 sec)
FINAL SINGLE POINT ENERGY      -112.566210706013
FINAL SINGLE POINT ENERGY      -112.566762096641
FINAL SINGLE POINT ENERGY      -112.567062323073
FINAL SINGLE POINT ENERGY      -112.567142430352
FINAL SINGLE POINT ENERGY      -112.567202453630
FINAL SINGLE POINT ENERGY      -112.567224880566
FINAL SINGLE POINT ENERGY      -112.567233982690
Dispersion correction             ... done (  0.1 sec)
Dispersion correction           -0.042901897
FINAL SINGLE POINT ENERGY      -112.567237338911
Dispersion correction             ... done (  0.1 sec)
Dispersion correction           -0.042898639
FINAL SINGLE POINT ENERGY      -112.567238532031
Dispersion correction             ... done (  0.1 sec)
                    ***********************HURRAY********************

CARTESIAN COORDINATES (ANGSTROEM)
---------------------------------
  C     -2.661033    1.869440   -0.287006
  C     -2.489119    0.363794   -0.186246
  C     -3.526635   -0.221861    0.761172
  C     -1.098970   -0.081777    0.217090
  C     -0.804819   -1.570506    0.109426
  C      0.715420   -1.692373    0.014931
  C      1.147995   -0.386514   -0.650636
  C      0.165329    0.642225   -0.152505
  C     -0.309167    0.618803    1.266291
  C      1.043436   -0.483053   -2.160908
  O      2.542753   -0.045045   -0.450009
  C      3.131998    0.065363    0.738528
  O      2.607608   -0.131044    1.800975
  C      4.565427    0.471043    0.574390
  H     -3.663085    2.106541   -0.643443
  H     -1.952618    2.317054   -0.981948
  H     -2.541552    2.354028    0.682144
  H     -2.671593   -0.052363   -1.183483
  H     -3.363068    0.142743    1.776454
  H     -3.483336   -1.309644    0.786952
  H     -4.534842    0.062417    0.460219
  H     -1.279498   -1.962412   -0.792925
  H     -1.203457   -2.136507    0.951482
  H      1.033466   -2.558962   -0.562581
  H      1.157511   -1.769632    1.002616
  H      0.134942    1.582167   -0.686054
  H      0.242731    0.047276    1.996114
  H     -0.693981    1.558089    1.636960
  H      1.736149   -1.232014   -2.540337
  H      0.031972   -0.760393   -2.449058
  H      1.283418    0.473956   -2.621151
  H      5.081137   -0.239748   -0.066625
  H      5.040894    0.514566    1.547686
  H      4.614588    1.444341    0.091486

 Multiplicity           Mult            ....    1
 Number of Electrons    NEL             ....   80
 Basis Dimension        Dim             ....  282

ORBITAL ENERGIES
----------------

  NO   OCC          E(Eh)            E(eV)
   0   2.0000      -1.229633       -33.4600
   1   2.0000      -1.139140       -30.9976
   2   2.0000      -1.042056       -28.3558
   3   2.0000      -0.949422       -25.8351
   4   2.0000      -0.917833       -24.9755
   5   2.0000      -0.891626       -24.2624
   6   2.0000      -0.870602       -23.6903
   7   2.0000      -0.820160       -22.3177
   8   2.0000      -0.798172       -21.7194
   9   2.0000      -0.760130       -20.6842
  10   2.0000      -0.739565       -20.1246
  11   2.0000      -0.724721       -19.7207
  12   2.0000      -0.660074       -17.9615
  13   2.0000      -0.647793       -17.6273
  14   2.0000      -0.619595       -16.8600
  15   2.0000      -0.600308       -16.3352
  16   2.0000      -0.596974       -16.2445
  17   2.0000      -0.591032       -16.0828
  18   2.0000      -0.580444       -15.7947
  19   2.0000      -0.566128       -15.4051
  20   2.0000      -0.534493       -14.5443
  21   2.0000      -0.528838       -14.3904
  22   2.0000      -0.522071       -14.2063
  23   2.0000      -0.513805       -13.9813
  24   2.0000      -0.511936       -13.9305
  25   2.0000      -0.506613       -13.7856
  26   2.0000      -0.500757       -13.6263
  27   2.0000      -0.497001       -13.5241
  28   2.0000      -0.492662       -13.4060
  29   2.0000      -0.486403       -13.2357
  30   2.0000      -0.462884       -12.5957
  31   2.0000      -0.454548       -12.3689
  32   2.0000      -0.446393       -12.1470
  33   2.0000      -0.440063       -11.9747
  34   2.0000      -0.436836       -11.8869
  35   2.0000      -0.419441       -11.4136
  36   2.0000      -0.404749       -11.0138
  37   2.0000      -0.386963       -10.5298
  38   2.0000      -0.370434       -10.0800
  39   2.0000      -0.364099        -9.9076
  40   0.0000       0.083945         2.2843
  41   0.0000       0.093379         2.5410
  42   0.0000       0.096477         2.6253
  43   0.0000       0.101372         2.7585
  44   0.0000       0.105629         2.8743

MULLIKEN ATOMIC CHARGES
-----------------------
   0 C :   -0.042107
   1 C :   -0.065792
   2 C :   -0.030719
   3 C :   -0.093454
   4 C :   -0.015805
   5 C :    0.002802
   6 C :   -0.069535
   7 C :    0.024807
   8 C :   -0.001692
   9 C :    0.007951
  10 O :   -0.266249
  11 C :    0.233875
  12 O :   -0.327333
  13 C :   -0.060249
  14 H :    0.029300
  15 H :    0.026692
  16 H :    0.024931
  17 H :    0.023505
  18 H :    0.028902
  19 H :    0.022585
  20 H :    0.027024
  21 H :    0.018946
  22 H :    0.041233
  23 H :    0.033332
  24 H :    0.064523
  25 H :    0.023079
  26 H :    0.057005
  27 H :    0.022874
  28 H :    0.035760
  29 H :    0.028744
  30 H :    0.036053
  31 H :    0.052552
  32 H :    0.053140
  33 H :    0.053322
Sum of atomic charges:    0.0000000

LOEWDIN ATOMIC CHARGES
----------------------
   0 C :   -0.104249
   1 C :   -0.078415
   2 C :   -0.102511
   3 C :   -0.047764
   4 C :   -0.060814
   5 C :   -0.052535
   6 C :   -0.024711
   7 C :   -0.036894
   8 C :   -0.043145
   9 C :   -0.090166
  10 O :   -0.006768
  11 C :   -0.056264
  12 O :   -0.139307
  13 C :   -0.084354
  14 H :    0.046732
  15 H :    0.041132
  16 H :    0.041065
  17 H :    0.045808
  18 H :    0.045375
  19 H :    0.042800
  20 H :    0.043378
  21 H :    0.041387
  22 H :    0.044625
  23 H :    0.044463
  24 H :    0.045323
  25 H :    0.037244
  26 H :    0.041902
  27 H :    0.040802
  28 H :    0.048180
  29 H :    0.050071
  30 H :    0.048652
  31 H :    0.059267
  32 H :    0.059820
  33 H :    0.059869

  Mayer bond orders larger than 0.100000
B(  0-C ,  1-C ) :   1.0027 B(  0-C , 14-H ) :   0.9913 B(  0-C , 15-H ) :   0.9943
B(  0-C , 16-H ) :   0.9900 B(  1-C ,  2-C ) :   0.9938 B(  1-C ,  3-C ) :   1.0047
B(  1-C , 17-H ) :   0.9889 B(  2-C , 18-H ) :   0.9884 B(  2-C , 19-H ) :   0.9955
B(  2-C , 20-H ) :   0.9946 B(  3-C ,  4-C ) :   0.9967 B(  3-C ,  7-C ) :   0.9047
B(  3-C ,  8-C ) :   0.9667 B(  4-C ,  5-C ) :   0.9921 B(  4-C , 21-H ) :   0.9919
B(  4-C , 22-H ) :   0.9936 B(  5-C ,  6-C ) :   0.9852 B(  5-C , 23-H ) :   0.9923
B(  5-C , 24-H ) :   0.9828 B(  6-C ,  7-C ) :   1.0368 B(  6-C ,  9-C ) :   1.0284
B(  6-C , 10-O ) :   0.8814 B(  7-C ,  8-C ) :   0.9702 B(  7-C , 25-H ) :   0.9954
B(  8-C , 26-H ) :   0.9871 B(  8-C , 27-H ) :   1.0024 B(  9-C , 28-H ) :   0.9866
B(  9-C , 29-H ) :   0.9840 B(  9-C , 30-H ) :   0.9891 B( 10-O , 11-C ) :   1.1640
B( 11-C , 12-O ) :   1.9242 B( 11-C , 13-C ) :   1.0396 B( 13-C , 31-H ) :   0.9760
B( 13-C , 32-H ) :   0.9885 B( 13-C , 33-H ) :   0.9742

Dispersion correction           -0.042899786
FINAL SINGLE POINT ENERGY      -112.567239269372

DIPOLE MOMENT
-------------

Method             : SCF
Type of density    : Electron Density
Multiplicity       :   1
Irrep              :   0
Energy             :  -112.5243394831692143 Eh
Relativity type    :
Basis              : AO
                                X                 Y                 Z
Electronic contribution:     10.346283235      -1.470757871       2.720167253
Nuclear contribution   :    -10.463809339       1.506502622      -3.519023772
                        -----------------------------------------
Total Dipole Moment    :     -0.117526104       0.035744751      -0.798856519
                        -----------------------------------------
Magnitude (a.u.)       :      0.808246132
Magnitude (Debye)      :      2.054398402

VIBRATIONAL FREQUENCIES
-----------------------

Scaling factor for frequencies =  1.000000000  (already applied!)

     0:       0.00 cm**-1
     1:       0.00 cm**-1
     2:       0.00 cm**-1
     3:       0.00 cm**-1
     4:       0.00 cm**-1
     5:       0.00 cm**-1
     6:      36.31 cm**-1
     7:      52.26 cm**-1
     8:      79.63 cm**-1
     9:      85.34 cm**-1
    10:      98.61 cm**-1
    11:     157.26 cm**-1
    12:     194.84 cm**-1
    13:     216.52 cm**-1
    14:     231.75 cm**-1
    15:     250.62 cm**-1
    16:     261.73 cm**-1
    17:     288.87 cm**-1
    18:     311.60 cm**-1
    19:     331.01 cm**-1
    20:     338.74 cm**-1
    21:     370.62 cm**-1
    22:     411.57 cm**-1
    23:     414.25 cm**-1
    24:     466.57 cm**-1
    25:     470.95 cm**-1
    26:     530.09 cm**-1
    27:     588.42 cm**-1
    28:     616.55 cm**-1
    29:     629.22 cm**-1
    30:     712.81 cm**-1
    31:     727.76 cm**-1
    32:     779.51 cm**-1
    33:     856.02 cm**-1
    34:     883.80 cm**-1
    35:     909.15 cm**-1
    36:     940.09 cm**-1
    37:     954.52 cm**-1
    38:     957.88 cm**-1
    39:     987.17 cm**-1
    40:     994.56 cm**-1
    41:     998.10 cm**-1
    42:    1011.61 cm**-1
    43:    1029.31 cm**-1
    44:    1042.03 cm**-1
    45:    1071.58 cm**-1
    46:    1084.18 cm**-1
    47:    1094.15 cm**-1
    48:    1094.51 cm**-1
    49:    1101.71 cm**-1
    50:    1142.00 cm**-1
    51:    1164.64 cm**-1
    52:    1171.53 cm**-1
    53:    1190.47 cm**-1
    54:    1209.66 cm**-1
    55:    1260.28 cm**-1
    56:    1265.42 cm**-1
    57:    1287.37 cm**-1
    58:    1312.84 cm**-1
    59:    1339.20 cm**-1
    60:    1357.65 cm**-1
    61:    1375.55 cm**-1
    62:    1380.60 cm**-1
    63:    1395.60 cm**-1
    64:    1417.18 cm**-1
    65:    1439.93 cm**-1
    66:    1441.56 cm**-1
    67:    1447.71 cm**-1
    68:    1453.49 cm**-1
    69:    1466.47 cm**-1
    70:    1502.19 cm**-1
    71:    1509.27 cm**-1
    72:    1514.40 cm**-1
    73:    1517.03 cm**-1
    74:    1519.20 cm**-1
    75:    1521.43 cm**-1
    76:    1533.37 cm**-1
    77:    1536.75 cm**-1
    78:    1540.99 cm**-1
    79:    1544.55 cm**-1
    80:    1559.81 cm**-1
    81:    1869.78 cm**-1
    82:    3066.10 cm**-1
    83:    3096.87 cm**-1
    84:    3101.66 cm**-1
    85:    3103.88 cm**-1
    86:    3113.09 cm**-1
    87:    3135.74 cm**-1
    88:    3146.26 cm**-1
    89:    3158.71 cm**-1
    90:    3183.99 cm**-1
    91:    3188.09 cm**-1
    92:    3195.24 cm**-1
    93:    3198.50 cm**-1
    94:    3208.16 cm**-1
    95:    3217.74 cm**-1
    96:    3219.33 cm**-1
    97:    3224.89 cm**-1
    98:    3230.23 cm**-1
    99:    3242.54 cm**-1
   100:    3262.76 cm**-1
   101:    3315.05 cm**-1

IR SPECTRUM
-----------

 Mode   freq       eps      Int      T**2         TX        TY        TZ
       cm**-1   L/(mol*cm) km/mol    a.u.
----------------------------------------------------------------------------
  6:     36.31   0.000045    0.23  0.000387  (-0.002665 -0.019487  0.000441)
  7:     52.26   0.000496    2.51  0.002963  (-0.016731  0.051705  0.003133)
  8:     79.63   0.000091    0.46  0.000358  ( 0.002969 -0.018680 -0.000602)
  9:     85.34   0.000034    0.17  0.000124  ( 0.001442  0.010987 -0.001085)
 10:     98.61   0.000279    1.41  0.000882  (-0.017899  0.022537 -0.007324)
 11:    157.26   0.000521    2.63  0.001033  (-0.022841 -0.006589 -0.021628)
 12:    194.84   0.000305    1.54  0.000489  ( 0.015120 -0.015045  0.005843)
 13:    216.52   0.000578    2.92  0.000833  ( 0.013780  0.004504  0.024964)
 14:    231.75   0.000089    0.45  0.000120  ( 0.006281  0.001945  0.008742)
 15:    250.62   0.000076    0.38  0.000094  ( 0.003358  0.001091  0.009049)
 16:    261.73   0.000018    0.09  0.000021  ( 0.002884  0.003547  0.000087)
 17:    288.87   0.000402    2.03  0.000434  ( 0.000337 -0.004803 -0.020263)
 18:    311.60   0.000259    1.31  0.000259  ( 0.012767 -0.008255 -0.005285)
 19:    331.01   0.000068    0.34  0.000064  ( 0.000177 -0.006142  0.005124)
 20:    338.74   0.000583    2.94  0.000537  ( 0.017848  0.011271  0.009550)
 21:    370.62   0.000140    0.71  0.000118  (-0.006316 -0.003273  0.008181)
 22:    411.57   0.000094    0.48  0.000071  ( 0.008124 -0.002314  0.000175)
 23:    414.25   0.000313    1.58  0.000236  (-0.013688  0.006909 -0.000695)
 24:    466.57   0.000639    3.23  0.000428  ( 0.017139  0.000460  0.011561)
 25:    470.95   0.000170    0.86  0.000112  ( 0.010589 -0.000605  0.000036)
 26:    530.09   0.000731    3.69  0.000430  (-0.016700 -0.007640 -0.009646)
 27:    588.42   0.000556    2.81  0.000295  ( 0.014934  0.004107  0.007409)
 28:    616.55   0.000734    3.71  0.000371  ( 0.017525 -0.007398 -0.003105)
 29:    629.22   0.001207    6.10  0.000599  (-0.003215 -0.024201 -0.001687)
 30:    712.81   0.000278    1.41  0.000122  (-0.001885  0.003395  0.010336)
 31:    727.76   0.002086   10.54  0.000894  ( 0.028163  0.007792 -0.006365)
 32:    779.51   0.000659    3.33  0.000264  (-0.013035 -0.009260 -0.002860)
 33:    856.02   0.000297    1.50  0.000108  (-0.004492  0.009312  0.001233)
 34:    883.80   0.000553    2.79  0.000195  ( 0.013098  0.000487 -0.004843)
 35:    909.15   0.002514   12.70  0.000863  (-0.027468 -0.002075  0.010203)
 36:    940.09   0.000048    0.24  0.000016  (-0.003228  0.001002  0.002097)
 37:    954.52   0.001429    7.22  0.000467  ( 0.013765  0.013467 -0.009822)
 38:    957.88   0.000807    4.08  0.000263  (-0.013859 -0.002874  0.007917)
 39:    987.17   0.000310    1.57  0.000098  (-0.004629  0.007425  0.004623)
 40:    994.56   0.000597    3.02  0.000187  ( 0.012672 -0.004686  0.002212)
 41:    998.10   0.000220    1.11  0.000069  (-0.000817 -0.007287 -0.003859)
 42:   1011.61   0.000835    4.22  0.000258  ( 0.007755  0.001228  0.013999)
 43:   1029.31   0.000303    1.53  0.000092  (-0.003682  0.008389  0.002811)
 44:   1042.03   0.000434    2.19  0.000130  ( 0.003810  0.000840  0.010711)
 45:   1071.58   0.003602   18.20  0.001049  ( 0.020561 -0.002728  0.024873)
 46:   1084.18   0.008924   45.10  0.002569  ( 0.043281  0.012402  0.023272)
 47:   1094.15   0.002398   12.12  0.000684  (-0.012931  0.022510 -0.003162)
 48:   1094.51   0.000687    3.47  0.000196  ( 0.011578  0.005467  0.005645)
 49:   1101.71   0.000718    3.63  0.000204  (-0.010491  0.003503  0.009010)
 50:   1142.00   0.008966   45.31  0.002450  (-0.043895 -0.009817 -0.020662)
 51:   1164.64   0.012015   60.72  0.003219  (-0.054641 -0.008157 -0.012927)
 52:   1171.53   0.002477   12.52  0.000660  (-0.024815  0.003819 -0.005418)
 53:   1190.47   0.011920   60.24  0.003125  ( 0.054727  0.004154  0.010604)
 54:   1209.66   0.000312    1.58  0.000081  (-0.001781  0.003821  0.007927)
 55:   1260.28   0.005755   29.08  0.001425  (-0.026779 -0.010469 -0.024460)
 56:   1265.42   0.000749    3.79  0.000185  (-0.007734  0.011060  0.001634)
 57:   1287.37   0.000253    1.28  0.000061  (-0.003022 -0.003341  0.006405)
 58:   1312.84   0.004078   20.61  0.000969  (-0.028317  0.006122 -0.011404)
 59:   1339.20   0.076276  385.47  0.017774  ( 0.106946  0.022215  0.076439)
 60:   1357.65   0.000602    3.04  0.000138  ( 0.002524 -0.009499 -0.006467)
 61:   1375.55   0.001170    5.91  0.000265  (-0.014954 -0.001077 -0.006369)
 62:   1380.60   0.001058    5.35  0.000239  (-0.014031 -0.006094 -0.002275)
 63:   1395.60   0.005316   26.86  0.001189  ( 0.033164  0.008668 -0.003699)
 64:   1417.18   0.001884    9.52  0.000415  (-0.018964 -0.007083  0.002231)
 65:   1439.93   0.003391   17.14  0.000735  ( 0.006006 -0.012396  0.023350)
 66:   1441.56   0.029469  148.92  0.006379  ( 0.068614  0.020928  0.035120)
 67:   1447.71   0.005314   26.85  0.001145  (-0.032840 -0.006079  0.005483)
 68:   1453.49   0.002288   11.56  0.000491  (-0.010967  0.018012  0.006823)
 69:   1466.47   0.002300   11.62  0.000489  (-0.013386  0.006051  0.016541)
 70:   1502.19   0.003848   19.45  0.000799  (-0.014667 -0.005570  0.023520)
 71:   1509.27   0.002407   12.16  0.000498  ( 0.008410 -0.020614 -0.001394)
 72:   1514.40   0.001619    8.18  0.000334  (-0.003382 -0.017942  0.000466)
 73:   1517.03   0.000419    2.12  0.000086  (-0.000718  0.006866 -0.006215)
 74:   1519.20   0.000181    0.91  0.000037  ( 0.003752  0.000949 -0.004710)
 75:   1521.43   0.001451    7.33  0.000298  (-0.011114 -0.012582  0.003962)
 76:   1533.37   0.000986    4.98  0.000201  (-0.012808 -0.000766 -0.005999)
 77:   1536.75   0.002532   12.80  0.000514  ( 0.001502 -0.010484 -0.020052)
 78:   1540.99   0.000850    4.30  0.000172  (-0.005540  0.010985 -0.004564)
 79:   1544.55   0.002100   10.61  0.000424  (-0.018111 -0.003667 -0.009100)
 80:   1559.81   0.002092   10.57  0.000419  ( 0.002922 -0.008234  0.018499)
 81:   1869.78   0.053865  272.21  0.008990  (-0.027743 -0.011842  0.089889)
 82:   3066.10   0.005587   28.24  0.000569  (-0.004333 -0.009109 -0.021608)
 83:   3096.87   0.005374   27.16  0.000542  ( 0.016353  0.010107 -0.013112)
 84:   3101.66   0.008876   44.86  0.000893  (-0.021581 -0.020118 -0.004750)
 85:   3103.88   0.005229   26.43  0.000526  (-0.013846  0.018271 -0.000432)
 86:   3113.09   0.003686   18.63  0.000369  ( 0.000166 -0.001464 -0.019165)
 87:   3135.74   0.000581    2.93  0.000058  ( 0.007224  0.001924 -0.001384)
 88:   3146.26   0.005603   28.32  0.000556  (-0.008312  0.021161  0.006239)
 89:   3158.71   0.003585   18.11  0.000354  (-0.003925 -0.007785  0.016677)
 90:   3183.99   0.000892    4.51  0.000087  (-0.006668 -0.001909 -0.006274)
 91:   3188.09   0.007187   36.32  0.000703  (-0.021159 -0.002677 -0.015767)
 92:   3195.24   0.003615   18.27  0.000353  ( 0.005088 -0.018077  0.000633)
 93:   3198.50   0.002979   15.06  0.000291  ( 0.011919 -0.000655 -0.012173)
 94:   3208.16   0.002274   11.49  0.000221  (-0.003953  0.014326  0.000594)
 95:   3217.74   0.002084   10.53  0.000202  ( 0.005920 -0.005694 -0.011603)
 96:   3219.33   0.002498   12.63  0.000242  ( 0.015411  0.001631 -0.001422)
 97:   3224.89   0.001128    5.70  0.000109  ( 0.004356 -0.003241 -0.008926)
 98:   3230.23   0.000136    0.69  0.000013  ( 0.001782 -0.003126 -0.000442)
 99:   3242.54   0.002130   10.77  0.000205  ( 0.002270  0.012598 -0.006416)
100:   3262.76   0.000332    1.68  0.000032  ( 0.004651  0.001024  0.003008)
101:   3315.05   0.000416    2.10  0.000039  (-0.004108 -0.004563 -0.001191)

--------------------------
THERMOCHEMISTRY AT 298.15K
--------------------------

Temperature         ...   298.15 K
Pressure            ...     1.00 atm
Total Mass          ...   196.29 AMU
Quasi RRHO          ...     True
Cut-Off Frequency   ...     1.00 cm^-1

Throughout the following assumptions are being made:
  (1) The electronic state is orbitally nondegenerate
  (2) There are no thermally accessible electronically excited states
  (3) Hindered rotations indicated by low frequency modes are not
      treated as such but are treated as vibrations and this may
      cause some error
  (4) All equations used are the standard statistical mechanics
      equations for an ideal gas
  (5) All vibrations are strictly harmonic

freq.      36.31  E(vib)   ...       0.54
freq.      52.26  E(vib)   ...       0.52
freq.      79.63  E(vib)   ...       0.49
freq.      85.34  E(vib)   ...       0.48
freq.      98.61  E(vib)   ...       0.46
freq.     157.26  E(vib)   ...       0.40
freq.     194.84  E(vib)   ...       0.36
freq.     216.52  E(vib)   ...       0.34
freq.     231.75  E(vib)   ...       0.32
freq.     250.62  E(vib)   ...       0.30
freq.     261.73  E(vib)   ...       0.30
freq.     288.87  E(vib)   ...       0.27
freq.     311.60  E(vib)   ...       0.25
freq.     331.01  E(vib)   ...       0.24
freq.     338.74  E(vib)   ...       0.23
freq.     370.62  E(vib)   ...       0.21
freq.     411.57  E(vib)   ...       0.19
freq.     414.25  E(vib)   ...       0.19
freq.     466.57  E(vib)   ...       0.16
freq.     470.95  E(vib)   ...       0.15
freq.     530.09  E(vib)   ...       0.13
freq.     588.42  E(vib)   ...       0.10
freq.     616.55  E(vib)   ...       0.09
freq.     629.22  E(vib)   ...       0.09
freq.     712.81  E(vib)   ...       0.07
freq.     727.76  E(vib)   ...       0.06
freq.     779.51  E(vib)   ...       0.05
freq.     856.02  E(vib)   ...       0.04
freq.     883.80  E(vib)   ...       0.04
freq.     909.15  E(vib)   ...       0.03
freq.     940.09  E(vib)   ...       0.03
freq.     954.52  E(vib)   ...       0.03
freq.     957.88  E(vib)   ...       0.03
freq.     987.17  E(vib)   ...       0.02
freq.     994.56  E(vib)   ...       0.02
freq.     998.10  E(vib)   ...       0.02
freq.    1011.61  E(vib)   ...       0.02
freq.    1029.31  E(vib)   ...       0.02
freq.    1042.03  E(vib)   ...       0.02
freq.    1071.58  E(vib)   ...       0.02
freq.    1084.18  E(vib)   ...       0.02
freq.    1094.15  E(vib)   ...       0.02
freq.    1094.51  E(vib)   ...       0.02
freq.    1101.71  E(vib)   ...       0.02
freq.    1142.00  E(vib)   ...       0.01
freq.    1164.64  E(vib)   ...       0.01
freq.    1171.53  E(vib)   ...       0.01
freq.    1190.47  E(vib)   ...       0.01
freq.    1209.66  E(vib)   ...       0.01
freq.    1260.28  E(vib)   ...       0.01
freq.    1265.42  E(vib)   ...       0.01
freq.    1287.37  E(vib)   ...       0.01
freq.    1312.84  E(vib)   ...       0.01
freq.    1339.20  E(vib)   ...       0.01
freq.    1357.65  E(vib)   ...       0.01
freq.    1375.55  E(vib)   ...       0.01
freq.    1380.60  E(vib)   ...       0.01
freq.    1395.60  E(vib)   ...       0.00
freq.    1417.18  E(vib)   ...       0.00
freq.    1439.93  E(vib)   ...       0.00
freq.    1441.56  E(vib)   ...       0.00
freq.    1447.71  E(vib)   ...       0.00
freq.    1453.49  E(vib)   ...       0.00
freq.    1466.47  E(vib)   ...       0.00
freq.    1502.19  E(vib)   ...       0.00
freq.    1509.27  E(vib)   ...       0.00
freq.    1514.40  E(vib)   ...       0.00
freq.    1517.03  E(vib)   ...       0.00
freq.    1519.20  E(vib)   ...       0.00
freq.    1521.43  E(vib)   ...       0.00
freq.    1533.37  E(vib)   ...       0.00
freq.    1536.75  E(vib)   ...       0.00
freq.    1540.99  E(vib)   ...       0.00
freq.    1544.55  E(vib)   ...       0.00
freq.    1559.81  E(vib)   ...       0.00
freq.    1869.78  E(vib)   ...       0.00
freq.    3066.10  E(vib)   ...       0.00
freq.    3096.87  E(vib)   ...       0.00
freq.    3101.66  E(vib)   ...       0.00
freq.    3103.88  E(vib)   ...       0.00
freq.    3113.09  E(vib)   ...       0.00
freq.    3135.74  E(vib)   ...       0.00
freq.    3146.26  E(vib)   ...       0.00
freq.    3158.71  E(vib)   ...       0.00
freq.    3183.99  E(vib)   ...       0.00
freq.    3188.09  E(vib)   ...       0.00
freq.    3195.24  E(vib)   ...       0.00
freq.    3198.50  E(vib)   ...       0.00
freq.    3208.16  E(vib)   ...       0.00
freq.    3217.74  E(vib)   ...       0.00
freq.    3219.33  E(vib)   ...       0.00
freq.    3224.89  E(vib)   ...       0.00
freq.    3230.23  E(vib)   ...       0.00
freq.    3242.54  E(vib)   ...       0.00
freq.    3262.76  E(vib)   ...       0.00
freq.    3315.05  E(vib)   ...       0.00

------------
INNER ENERGY
------------

The inner energy is: U= E(el) + E(ZPE) + E(vib) + E(rot) + E(trans)
    E(el)   - is the total energy from the electronic structure calculation
              = E(kin-el) + E(nuc-el) + E(el-el) + E(nuc-nuc)
    E(ZPE)  - the the zero temperature vibrational energy from the frequency calculation
    E(vib)  - the the finite temperature correction to E(ZPE) due to population
              of excited vibrational states
    E(rot)  - is the rotational thermal energy
    E(trans)- is the translational thermal energy

Summary of contributions to the inner energy U:
Electronic energy                ...   -112.56723927 Eh
Zero point energy                ...      0.30860174 Eh     193.65 kcal/mol
Thermal vibrational correction   ...      0.01207810 Eh       7.58 kcal/mol
Thermal rotational correction    ...      0.00141627 Eh       0.89 kcal/mol
Thermal translational correction ...      0.00141627 Eh       0.89 kcal/mol
-----------------------------------------------------------------------
Total thermal energy                   -112.24372689 Eh

Summary of corrections to the electronic energy:
(perhaps to be used in another calculation)
Total thermal correction                  0.01491064 Eh       9.36 kcal/mol
Non-thermal (ZPE) correction              0.30860174 Eh     193.65 kcal/mol
-----------------------------------------------------------------------
Total correction                          0.32351238 Eh     203.01 kcal/mol

--------
ENTHALPY
--------

The enthalpy is H = U + kB*T
                kB is Boltzmann's constant
Total thermal energy              ...   -112.24372689 Eh
Thermal Enthalpy correction       ...      0.00094421 Eh       0.59 kcal/mol
-----------------------------------------------------------------------
Total Enthalpy                    ...   -112.24278268 Eh

Note: Only C1 symmetry has been detected, increase convergence thresholds
      if your molecule has a higher symmetry. Symmetry factor of 1.0 is

Rotational constants in cm-1:     0.047189     0.013594     0.013133

                             ****ORCA TERMINATED NORMALLY****
TOTAL RUN TIME: 0 days 0 hours 23 minutes 10 seconds 765 msec
