                         Program Version 6.0.1  -  RELEASE   -
|  1> ! wB97X-3c OPT FREQ TightSCF
|  2> %pal
|  3>   nprocs 40
|  4> end
|  5> * xyz 0 1
|  6> C      2.616520     1.840692     1.589832
|  7> C      1.966180     1.015567     0.520762
|  8> C      2.533880     0.878003    -0.715742
|  9> C      1.826972    -0.010893    -1.763483
| 10> C      0.488759    -0.579024    -1.170384
| 11> C     -0.214240     0.641252    -0.522499
| 12> C      0.618006     0.308310     0.747999
| 13> C      0.742239    -1.160054     0.256135
| 14> C     -0.395066    -2.112720     0.747993
| 15> C     -1.755070    -1.491019     1.075662
| 16> C     -2.379209    -0.797859    -0.129741
| 17> C     -1.778245     0.597302    -0.448605
| 18> C     -2.325070     1.022642    -1.832276
| 19> C     -2.272121     1.643437     0.579183
| 20> C      2.091427    -1.905797     0.506963
| 21> H      2.001999     1.840339     2.514078
| 22> H      3.617021     1.422335     1.827570
| 23> H      2.730361     2.887506     1.237991
| 24> H      3.477293     1.358521    -0.955830
| 25> H      1.603382     0.597443    -2.665587
| 26> H      2.493861    -0.843017    -2.071898
| 27> H     -0.110440    -1.200010    -1.869128
| 28> H      0.067406     1.625392    -0.973951
| 29> H      0.156389     0.475914     1.741162
| 30> H     -0.537967    -2.915506    -0.008829
| 31> H     -0.067551    -2.623867     1.680442
| 32> H     -1.689451    -0.819396     1.953883
| 33> H     -2.433475    -2.318475     1.379208
| 34> H     -3.469637    -0.686815     0.063465
| 35> H     -2.299653    -1.472394    -1.011012
| 36> H     -1.966816     0.333930    -2.627432
| 37> H     -1.993720     2.050725    -2.095557
| 38> H     -3.436908     1.010537    -1.839614
| 39> H     -3.382257     1.698864     0.582459
| 40> H     -1.944640     1.403947     1.609327
| 41> H     -1.879287     2.652546     0.328078
| 42> H      2.216032    -2.090107     1.595189
| 43> H      2.073024    -2.887195    -0.013214
| 44> H      3.010075    -1.391060     0.177402
| 45> *
| 46>
| 47>                          ****END OF INPUT****
 Total Charge           Charge          ....    0
 Multiplicity           Mult            ....    1
 Number of Electrons    NEL             ....   84
Dispersion correction           -0.055677978
FINAL SINGLE POINT ENERGY       -99.910103765393
Dispersion correction             ... done (  0.1 sec)
Dispersion correction           -0.056615576
FINAL SINGLE POINT ENERGY       -99.925520183988
Dispersion correction             ... done (  0.1 sec)
Dispersion correction           -0.056767683
FINAL SINGLE POINT ENERGY       -99.926787273790
Dispersion correction             ... done (  0.1 sec)
FINAL SINGLE POINT ENERGY       -99.927011055424
FINAL SINGLE POINT ENERGY       -99.927063369831
FINAL SINGLE POINT ENERGY       -99.927087070219
FINAL SINGLE POINT ENERGY       -99.927334147167
FINAL SINGLE POINT ENERGY       -99.927845046147
FINAL SINGLE POINT ENERGY       -99.928510892758
FINAL SINGLE POINT ENERGY       -99.929592120071
FINAL SINGLE POINT ENERGY       -99.930081492007
FINAL SINGLE POINT ENERGY       -99.930520638769
FINAL SINGLE POINT ENERGY       -99.930946798259
FINAL SINGLE POINT ENERGY       -99.930259034976
FINAL SINGLE POINT ENERGY       -99.931026013721
Dispersion correction             ... done (  0.0 sec)
Dispersion correction           -0.056754472
FINAL SINGLE POINT ENERGY       -99.931046206751
Dispersion correction             ... done (  0.1 sec)
Dispersion correction           -0.056750619
FINAL SINGLE POINT ENERGY       -99.931060977986
Dispersion correction             ... done (  0.1 sec)
                    ***********************HURRAY********************

CARTESIAN COORDINATES (ANGSTROEM)
---------------------------------
  C      2.550205    1.833721    1.578930
  C      1.945593    1.030015    0.480042
  C      2.468133    0.898057   -0.734128
  C      1.785953    0.025264   -1.753187
  C      0.498521   -0.550018   -1.168615
  C     -0.255160    0.615071   -0.494719
  C      0.642119    0.309649    0.737186
  C      0.761767   -1.158251    0.237293
  C     -0.349633   -2.081003    0.745002
  C     -1.713637   -1.500350    1.063461
  C     -2.363128   -0.798482   -0.107749
  C     -1.782372    0.576887   -0.426919
  C     -2.305876    1.000183   -1.797634
  C     -2.249916    1.599622    0.604243
  C      2.064907   -1.907809    0.453163
  H      1.858199    2.604695    1.922516
  H      2.770940    1.200533    2.440259
  H      3.473136    2.315975    1.262581
  H      3.395268    1.391115   -1.003001
  H      1.550267    0.605769   -2.649793
  H      2.459979   -0.772330   -2.078470
  H     -0.032695   -1.169586   -1.893866
  H     -0.003607    1.585568   -0.926758
  H      0.263386    0.486378    1.743547
  H     -0.471905   -2.883140    0.009685
  H      0.020068   -2.566633    1.651223
  H     -1.644124   -0.825773    1.918591
  H     -2.353416   -2.322122    1.391091
  H     -3.433790   -0.678456    0.074781
  H     -2.280479   -1.440171   -0.989534
  H     -1.921062    0.349868   -2.583928
  H     -2.011317    2.023130   -2.033823
  H     -3.395121    0.949872   -1.827998
  H     -3.335830    1.700244    0.583154
  H     -1.961848    1.324830    1.617491
  H     -1.820225    2.580273    0.395477
  H      2.227833   -2.077208    1.518663
  H      2.013403   -2.887139   -0.026128
  H      2.935465   -1.388252    0.067874

 Multiplicity           Mult            ....    1
 Number of Electrons    NEL             ....   84
 Basis Dimension        Dim             ....  315

ORBITAL ENERGIES
----------------

  NO   OCC          E(Eh)            E(eV)
   0   2.0000      -1.035234       -28.1702
   1   2.0000      -0.964455       -26.2442
   2   2.0000      -0.929930       -25.3047
   3   2.0000      -0.904700       -24.6181
   4   2.0000      -0.878128       -23.8951
   5   2.0000      -0.857239       -23.3266
   6   2.0000      -0.819108       -22.2891
   7   2.0000      -0.804995       -21.9050
   8   2.0000      -0.802131       -21.8271
   9   2.0000      -0.751578       -20.4515
  10   2.0000      -0.738374       -20.0922
  11   2.0000      -0.715266       -19.4634
  12   2.0000      -0.671995       -18.2859
  13   2.0000      -0.644803       -17.5460
  14   2.0000      -0.616663       -16.7802
  15   2.0000      -0.592521       -16.1233
  16   2.0000      -0.587021       -15.9737
  17   2.0000      -0.566622       -15.4186
  18   2.0000      -0.561004       -15.2657
  19   2.0000      -0.546498       -14.8710
  20   2.0000      -0.540663       -14.7122
  21   2.0000      -0.533082       -14.5059
  22   2.0000      -0.525934       -14.3114
  23   2.0000      -0.515662       -14.0319
  24   2.0000      -0.508867       -13.8470
  25   2.0000      -0.502860       -13.6835
  26   2.0000      -0.495634       -13.4869
  27   2.0000      -0.491460       -13.3733
  28   2.0000      -0.481011       -13.0890
  29   2.0000      -0.472062       -12.8455
  30   2.0000      -0.469262       -12.7693
  31   2.0000      -0.461005       -12.5446
  32   2.0000      -0.459768       -12.5109
  33   2.0000      -0.447486       -12.1767
  34   2.0000      -0.434404       -11.8207
  35   2.0000      -0.414846       -11.2885
  36   2.0000      -0.410059       -11.1583
  37   2.0000      -0.397866       -10.8265
  38   2.0000      -0.384590       -10.4652
  39   2.0000      -0.383886       -10.4461
  40   2.0000      -0.370029       -10.0690
  41   2.0000      -0.319271        -8.6878
  42   0.0000       0.087686         2.3861
  43   0.0000       0.094727         2.5777
  44   0.0000       0.096813         2.6344
  45   0.0000       0.098943         2.6924
  46   0.0000       0.104520         2.8441

MULLIKEN ATOMIC CHARGES
-----------------------
   0 C :   -0.037850
   1 C :   -0.075889
   2 C :   -0.032076
   3 C :   -0.042544
   4 C :    0.002055
   5 C :   -0.022876
   6 C :    0.002296
   7 C :   -0.148333
   8 C :   -0.014902
   9 C :   -0.034988
  10 C :    0.004184
  11 C :   -0.195996
  12 C :   -0.010987
  13 C :    0.003062
  14 C :   -0.007611
  15 H :    0.036166
  16 H :    0.034952
  17 H :    0.025987
  18 H :    0.017594
  19 H :    0.038035
  20 H :    0.035283
  21 H :    0.022699
  22 H :    0.033539
  23 H :    0.012035
  24 H :    0.023833
  25 H :    0.023387
  26 H :    0.016569
  27 H :    0.032413
  28 H :    0.026583
  29 H :    0.017020
  30 H :    0.020593
  31 H :    0.024736
  32 H :    0.024638
  33 H :    0.024337
  34 H :    0.014811
  35 H :    0.024733
  36 H :    0.025402
  37 H :    0.025393
  38 H :    0.031716
Sum of atomic charges:    0.0000000

LOEWDIN ATOMIC CHARGES
----------------------
   0 C :   -0.110522
   1 C :   -0.035786
   2 C :   -0.053211
   3 C :   -0.080848
   4 C :   -0.027642
   5 C :   -0.028433
   6 C :   -0.024181
   7 C :   -0.044504
   8 C :   -0.076966
   9 C :   -0.083809
  10 C :   -0.076879
  11 C :   -0.079830
  12 C :   -0.101412
  13 C :   -0.101103
  14 C :   -0.105713
  15 H :    0.049385
  16 H :    0.048973
  17 H :    0.050294
  18 H :    0.031511
  19 H :    0.047595
  20 H :    0.044269
  21 H :    0.028667
  22 H :    0.042892
  23 H :    0.028768
  24 H :    0.045492
  25 H :    0.049174
  26 H :    0.038199
  27 H :    0.049463
  28 H :    0.047146
  29 H :    0.044481
  30 H :    0.043078
  31 H :    0.043337
  32 H :    0.044267
  33 H :    0.043863
  34 H :    0.037682
  35 H :    0.045250
  36 H :    0.043302
  37 H :    0.045238
  38 H :    0.038512

  Mayer bond orders larger than 0.100000
B(  0-C ,  1-C ) :   1.0395 B(  0-C , 15-H ) :   0.9775 B(  0-C , 16-H ) :   0.9763
B(  0-C , 17-H ) :   0.9884 B(  1-C ,  2-C ) :   1.9089 B(  1-C ,  6-C ) :   1.0318
B(  2-C ,  3-C ) :   1.0158 B(  2-C , 18-H ) :   0.9831 B(  3-C ,  4-C ) :   1.0121
B(  3-C , 19-H ) :   0.9856 B(  3-C , 20-H ) :   0.9849 B(  4-C ,  5-C ) :   0.9650
B(  4-C ,  7-C ) :   0.9566 B(  4-C , 21-H ) :   1.0008 B(  5-C ,  6-C ) :   0.9664
B(  5-C , 11-C ) :   1.0052 B(  5-C , 22-H ) :   0.9985 B(  6-C ,  7-C ) :   0.9477
B(  6-C , 23-H ) :   0.9953 B(  7-C ,  8-C ) :   1.0080 B(  7-C , 14-C ) :   1.0283
B(  8-C ,  9-C ) :   0.9947 B(  8-C , 24-H ) :   0.9923 B(  8-C , 25-H ) :   1.0000
B(  9-C , 10-C ) :   0.9892 B(  9-C , 26-H ) :   0.9916 B(  9-C , 27-H ) :   0.9966
B( 10-C , 11-C ) :   0.9792 B( 10-C , 28-H ) :   0.9942 B( 10-C , 29-H ) :   0.9919
B( 11-C , 12-C ) :   1.0189 B( 11-C , 13-C ) :   1.0096 B( 12-C , 30-H ) :   0.9917
B( 12-C , 31-H ) :   0.9917 B( 12-C , 32-H ) :   0.9902 B( 13-C , 33-H ) :   0.9902
B( 13-C , 34-H ) :   0.9926 B( 13-C , 35-H ) :   0.9909 B( 14-C , 36-H ) :   0.9874
B( 14-C , 37-H ) :   0.9860 B( 14-C , 38-H ) :   0.9854

Dispersion correction           -0.056751241
FINAL SINGLE POINT ENERGY       -99.931061530413

DIPOLE MOMENT
-------------

Method             : SCF
Type of density    : Electron Density
Multiplicity       :   1
Irrep              :   0
Energy             :   -99.8743102892145771 Eh
Relativity type    :
Basis              : AO
                                X                 Y                 Z
Electronic contribution:      4.817930609      -0.344358736      -1.609328877
Nuclear contribution   :     -4.884569589       0.309173803       1.679428542
                        -----------------------------------------
Total Dipole Moment    :     -0.066638980      -0.035184933       0.070099665
                        -----------------------------------------
Magnitude (a.u.)       :      0.102920825
Magnitude (Debye)      :      0.261603948

VIBRATIONAL FREQUENCIES
-----------------------

Scaling factor for frequencies =  1.000000000  (already applied!)

     0:       0.00 cm**-1
     1:       0.00 cm**-1
     2:       0.00 cm**-1
     3:       0.00 cm**-1
     4:       0.00 cm**-1
     5:       0.00 cm**-1
     6:      97.32 cm**-1
     7:     118.00 cm**-1
     8:     151.09 cm**-1
     9:     191.09 cm**-1
    10:     199.14 cm**-1
    11:     209.93 cm**-1
    12:     229.06 cm**-1
    13:     240.23 cm**-1
    14:     269.13 cm**-1
    15:     278.82 cm**-1
    16:     287.10 cm**-1
    17:     310.39 cm**-1
    18:     343.61 cm**-1
    19:     347.71 cm**-1
    20:     359.52 cm**-1
    21:     395.26 cm**-1
    22:     404.10 cm**-1
    23:     436.51 cm**-1
    24:     456.21 cm**-1
    25:     472.83 cm**-1
    26:     505.53 cm**-1
    27:     534.03 cm**-1
    28:     564.60 cm**-1
    29:     588.97 cm**-1
    30:     665.17 cm**-1
    31:     689.96 cm**-1
    32:     782.45 cm**-1
    33:     823.19 cm**-1
    34:     848.28 cm**-1
    35:     873.26 cm**-1
    36:     905.57 cm**-1
    37:     921.09 cm**-1
    38:     938.20 cm**-1
    39:     938.80 cm**-1
    40:     952.77 cm**-1
    41:     971.06 cm**-1
    42:     979.69 cm**-1
    43:     985.34 cm**-1
    44:    1008.16 cm**-1
    45:    1019.54 cm**-1
    46:    1034.01 cm**-1
    47:    1048.58 cm**-1
    48:    1056.08 cm**-1
    49:    1075.90 cm**-1
    50:    1085.88 cm**-1
    51:    1089.89 cm**-1
    52:    1094.57 cm**-1
    53:    1128.56 cm**-1
    54:    1147.57 cm**-1
    55:    1175.37 cm**-1
    56:    1186.44 cm**-1
    57:    1209.38 cm**-1
    58:    1220.69 cm**-1
    59:    1229.39 cm**-1
    60:    1242.79 cm**-1
    61:    1243.75 cm**-1
    62:    1270.64 cm**-1
    63:    1283.83 cm**-1
    64:    1303.12 cm**-1
    65:    1322.48 cm**-1
    66:    1344.13 cm**-1
    67:    1347.49 cm**-1
    68:    1366.58 cm**-1
    69:    1372.01 cm**-1
    70:    1385.52 cm**-1
    71:    1404.88 cm**-1
    72:    1414.36 cm**-1
    73:    1431.54 cm**-1
    74:    1439.14 cm**-1
    75:    1441.64 cm**-1
    76:    1446.12 cm**-1
    77:    1448.74 cm**-1
    78:    1448.96 cm**-1
    79:    1469.16 cm**-1
    80:    1505.99 cm**-1
    81:    1507.16 cm**-1
    82:    1510.12 cm**-1
    83:    1511.72 cm**-1
    84:    1515.72 cm**-1
    85:    1518.79 cm**-1
    86:    1522.35 cm**-1
    87:    1526.60 cm**-1
    88:    1531.46 cm**-1
    89:    1538.79 cm**-1
    90:    1542.06 cm**-1
    91:    1543.27 cm**-1
    92:    1788.04 cm**-1
    93:    3071.76 cm**-1
    94:    3080.37 cm**-1
    95:    3081.10 cm**-1
    96:    3088.88 cm**-1
    97:    3090.31 cm**-1
    98:    3094.36 cm**-1
    99:    3095.74 cm**-1
   100:    3102.33 cm**-1
   101:    3105.73 cm**-1
   102:    3121.07 cm**-1
   103:    3122.33 cm**-1
   104:    3125.69 cm**-1
   105:    3132.08 cm**-1
   106:    3142.05 cm**-1
   107:    3152.07 cm**-1
   108:    3166.26 cm**-1
   109:    3169.91 cm**-1
   110:    3176.50 cm**-1
   111:    3180.11 cm**-1
   112:    3182.85 cm**-1
   113:    3195.48 cm**-1
   114:    3201.63 cm**-1
   115:    3227.43 cm**-1
   116:    3229.76 cm**-1

IR SPECTRUM
-----------

 Mode   freq       eps      Int      T**2         TX        TY        TZ
       cm**-1   L/(mol*cm) km/mol    a.u.
----------------------------------------------------------------------------
  6:     97.32   0.000076    0.38  0.000244  ( 0.007853 -0.012664  0.004697)
  7:    118.00   0.000061    0.31  0.000162  ( 0.007215 -0.010378  0.001327)
  8:    151.09   0.000068    0.34  0.000140  ( 0.004442 -0.008852  0.006445)
  9:    191.09   0.000014    0.07  0.000023  (-0.002344  0.004208 -0.000086)
 10:    199.14   0.000046    0.23  0.000073  (-0.005512  0.005438 -0.003554)
 11:    209.93   0.000023    0.12  0.000034  ( 0.004069 -0.004051 -0.001120)
 12:    229.06   0.000024    0.12  0.000033  ( 0.001443  0.001677 -0.005263)
 13:    240.23   0.000002    0.01  0.000002  ( 0.000510  0.001335 -0.000635)
 14:    269.13   0.000025    0.13  0.000029  ( 0.003206  0.002350  0.003660)
 15:    278.82   0.000002    0.01  0.000002  (-0.000062 -0.001452 -0.000056)
 16:    287.10   0.000004    0.02  0.000005  (-0.001201  0.000178 -0.001743)
 17:    310.39   0.000034    0.17  0.000035  ( 0.001800  0.002912 -0.004773)
 18:    343.61   0.000022    0.11  0.000020  ( 0.002637 -0.001579 -0.003243)
 19:    347.71   0.000088    0.44  0.000079  (-0.002555  0.007535 -0.003943)
 20:    359.52   0.000212    1.07  0.000184  (-0.007355  0.010337 -0.004788)
 21:    395.26   0.000018    0.09  0.000014  ( 0.002141 -0.000367  0.003071)
 22:    404.10   0.000037    0.19  0.000028  ( 0.000597 -0.005118  0.001393)
 23:    436.51   0.000042    0.21  0.000030  (-0.001366  0.004907 -0.002019)
 24:    456.21   0.000081    0.41  0.000056  ( 0.001316 -0.006528  0.003355)
 25:    472.83   0.000046    0.23  0.000030  (-0.002937  0.003761 -0.002741)
 26:    505.53   0.000150    0.76  0.000092  (-0.005156 -0.007927 -0.001704)
 27:    534.03   0.000077    0.39  0.000045  ( 0.004162  0.002969 -0.004348)
 28:    564.60   0.000074    0.37  0.000041  ( 0.000719 -0.006329 -0.000648)
 29:    588.97   0.000516    2.61  0.000273  ( 0.010206 -0.011991  0.005026)
 30:    665.17   0.000015    0.08  0.000007  (-0.002172 -0.000817 -0.001278)
 31:    689.96   0.000019    0.10  0.000009  ( 0.001093 -0.002421 -0.001307)
 32:    782.45   0.000428    2.16  0.000171  (-0.003337  0.012519 -0.001718)
 33:    823.19   0.002369   11.97  0.000898  (-0.014298  0.023521 -0.011850)
 34:    848.28   0.000150    0.76  0.000055  (-0.007051 -0.001926 -0.001364)
 35:    873.26   0.000405    2.04  0.000145  (-0.004962  0.008904 -0.006380)
 36:    905.57   0.000827    4.18  0.000285  ( 0.013769 -0.009707  0.001127)
 37:    921.09   0.000017    0.09  0.000006  (-0.000352  0.000237 -0.002360)
 38:    938.20   0.000368    1.86  0.000122  ( 0.010837  0.002053 -0.000836)
 39:    938.80   0.000241    1.22  0.000080  ( 0.005470 -0.006849  0.001856)
 40:    952.77   0.000420    2.12  0.000137  ( 0.007862 -0.003632 -0.007905)
 41:    971.06   0.000105    0.53  0.000034  (-0.000657 -0.001458 -0.005580)
 42:    979.69   0.000145    0.73  0.000046  (-0.001230 -0.006689 -0.000085)
 43:    985.34   0.000140    0.71  0.000044  (-0.004961 -0.002636  0.003584)
 44:   1008.16   0.000720    3.64  0.000223  (-0.008154 -0.010331  0.007048)
 45:   1019.54   0.000703    3.55  0.000215  (-0.005242 -0.012542  0.005503)
 46:   1034.01   0.000752    3.80  0.000227  ( 0.010645  0.010588 -0.001279)
 47:   1048.58   0.000051    0.26  0.000015  ( 0.002257 -0.002266 -0.002244)
 48:   1056.08   0.000259    1.31  0.000077  (-0.006020 -0.000615 -0.006325)
 49:   1075.90   0.000486    2.45  0.000141  ( 0.004750 -0.001924 -0.010703)
 50:   1085.88   0.000109    0.55  0.000031  (-0.001596 -0.005046  0.001853)
 51:   1089.89   0.000562    2.84  0.000161  ( 0.010650  0.000392 -0.006886)
 52:   1094.57   0.000229    1.16  0.000065  ( 0.004152  0.001018 -0.006848)
 53:   1128.56   0.000059    0.30  0.000016  (-0.002817 -0.002561 -0.001337)
 54:   1147.57   0.000117    0.59  0.000032  (-0.000002  0.003711 -0.004237)
 55:   1175.37   0.000335    1.69  0.000089  (-0.008632  0.000789 -0.003725)
 56:   1186.44   0.000225    1.14  0.000059  (-0.003808 -0.006660  0.000651)
 57:   1209.38   0.001106    5.59  0.000285  ( 0.014154 -0.009057  0.001752)
 58:   1220.69   0.000117    0.59  0.000030  (-0.002943  0.003857  0.002549)
 59:   1229.39   0.000245    1.24  0.000062  (-0.001700  0.006165 -0.004615)
 60:   1242.79   0.000144    0.73  0.000036  ( 0.002450  0.003630  0.004108)
 61:   1243.75   0.000135    0.68  0.000034  (-0.005420  0.002010  0.000626)
 62:   1270.64   0.000521    2.63  0.000128  ( 0.011243  0.000483  0.001097)
 63:   1283.83   0.000383    1.94  0.000093  ( 0.003178  0.008075 -0.004232)
 64:   1303.12   0.000144    0.73  0.000035  (-0.002220 -0.005393 -0.000758)
 65:   1322.48   0.000280    1.41  0.000066  (-0.004559 -0.000035  0.006722)
 66:   1344.13   0.001116    5.64  0.000259  (-0.014529  0.006903 -0.000581)
 67:   1347.49   0.000962    4.86  0.000223  ( 0.009661  0.007819 -0.008269)
 68:   1366.58   0.000097    0.49  0.000022  (-0.003476  0.002101 -0.002388)
 69:   1372.01   0.000008    0.04  0.000002  ( 0.000595 -0.001132  0.000501)
 70:   1385.52   0.000774    3.91  0.000174  ( 0.010949  0.006596 -0.003304)
 71:   1404.88   0.000231    1.17  0.000051  (-0.004304 -0.003343 -0.004646)
 72:   1414.36   0.000061    0.31  0.000013  ( 0.003069 -0.001462 -0.001351)
 73:   1431.54   0.003025   15.29  0.000659  ( 0.000770  0.006557  0.024816)
 74:   1439.14   0.001119    5.66  0.000243  ( 0.010194 -0.011779 -0.000023)
 75:   1441.64   0.001794    9.07  0.000388  (-0.014977  0.012090 -0.004226)
 76:   1446.12   0.000511    2.58  0.000110  (-0.001101  0.010289 -0.001762)
 77:   1448.74   0.002712   13.71  0.000584  ( 0.011982 -0.020352  0.005139)
 78:   1448.96   0.002379   12.02  0.000512  ( 0.014255  0.010687  0.013965)
 79:   1469.16   0.000398    2.01  0.000085  ( 0.008784  0.001363 -0.002363)
 80:   1505.99   0.001352    6.83  0.000280  (-0.011796  0.006203  0.010127)
 81:   1507.16   0.002411   12.18  0.000499  (-0.012202  0.018265 -0.004083)
 82:   1510.12   0.000895    4.52  0.000185  ( 0.004181 -0.005063 -0.011912)
 83:   1511.72   0.001555    7.86  0.000321  ( 0.003375  0.003207 -0.017301)
 84:   1515.72   0.000437    2.21  0.000090  (-0.001836  0.000722  0.009283)
 85:   1518.79   0.001358    6.87  0.000279  (-0.012340 -0.004014  0.010523)
 86:   1522.35   0.000279    1.41  0.000057  (-0.000049 -0.004836  0.005808)
 87:   1526.60   0.002357   11.91  0.000482  ( 0.005428 -0.008070 -0.019677)
 88:   1531.46   0.002028   10.25  0.000413  ( 0.016620  0.011639 -0.001218)
 89:   1538.79   0.002212   11.18  0.000449  (-0.000342 -0.017051  0.012557)
 90:   1542.06   0.003209   16.22  0.000649  ( 0.021950  0.010939  0.006927)
 91:   1543.27   0.000079    0.40  0.000016  ( 0.003345 -0.001704 -0.001354)
 92:   1788.04   0.000769    3.89  0.000134  ( 0.004954 -0.001263 -0.010395)
 93:   3071.76   0.006178   31.22  0.000628  (-0.002177  0.024955  0.000406)
 94:   3080.37   0.008956   45.26  0.000907  ( 0.004482 -0.007442 -0.028841)
 95:   3081.10   0.004550   22.99  0.000461  (-0.019413 -0.007585  0.005143)
 96:   3088.88   0.007494   37.87  0.000757  ( 0.010112  0.001763  0.025530)
 97:   3090.31   0.006009   30.36  0.000607  (-0.008422 -0.013988 -0.018443)
 98:   3094.36   0.004401   22.24  0.000444  (-0.011809  0.017420  0.000976)
 99:   3095.74   0.009942   50.24  0.001002  (-0.019093  0.024190 -0.007250)
100:   3102.33   0.007493   37.87  0.000754  (-0.016325 -0.015713  0.015504)
101:   3105.73   0.005009   25.32  0.000503  ( 0.005916 -0.020980  0.005307)
102:   3121.07   0.009824   49.65  0.000982  (-0.015473 -0.012152 -0.024397)
103:   3122.33   0.003487   17.62  0.000348  ( 0.010899 -0.014612  0.004021)
104:   3125.69   0.005395   27.26  0.000539  ( 0.007105 -0.014090  0.017017)
105:   3132.08   0.007348   37.13  0.000732  ( 0.019900 -0.003237 -0.018044)
106:   3142.05   0.003961   20.02  0.000393  (-0.010643 -0.000901  0.016714)
107:   3152.07   0.009118   46.08  0.000903  ( 0.002286  0.022241  0.020071)
108:   3166.26   0.002002   10.12  0.000197  (-0.006862  0.012110 -0.001897)
109:   3169.91   0.003892   19.67  0.000383  (-0.003993 -0.007582 -0.017598)
110:   3176.50   0.000547    2.76  0.000054  (-0.005618 -0.004672 -0.000558)
111:   3180.11   0.008637   43.65  0.000848  ( 0.027545  0.006040 -0.007235)
112:   3182.85   0.004978   25.16  0.000488  (-0.000720 -0.020948 -0.006978)
113:   3195.48   0.004761   24.06  0.000465  (-0.008504  0.007817 -0.018207)
114:   3201.63   0.002697   13.63  0.000263  ( 0.013480  0.006779 -0.005937)
115:   3227.43   0.005834   29.48  0.000564  (-0.020366 -0.011007  0.005307)
116:   3229.76   0.000986    4.98  0.000095  ( 0.007853  0.002868 -0.005037)

--------------------------
THERMOCHEMISTRY AT 298.15K
--------------------------

Temperature         ...   298.15 K
Pressure            ...     1.00 atm
Total Mass          ...   204.36 AMU
Quasi RRHO          ...     True
Cut-Off Frequency   ...     1.00 cm^-1

Throughout the following assumptions are being made:
  (1) The electronic state is orbitally nondegenerate
  (2) There are no thermally accessible electronically excited states
  (3) Hindered rotations indicated by low frequency modes are not
      treated as such but are treated as vibrations and this may
      cause some error
  (4) All equations used are the standard statistical mechanics
      equations for an ideal gas
  (5) All vibrations are strictly harmonic

freq.      97.32  E(vib)   ...       0.46
freq.     118.00  E(vib)   ...       0.44
freq.     151.09  E(vib)   ...       0.40
freq.     191.09  E(vib)   ...       0.36
freq.     199.14  E(vib)   ...       0.35
freq.     209.93  E(vib)   ...       0.34
freq.     229.06  E(vib)   ...       0.32
freq.     240.23  E(vib)   ...       0.31
freq.     269.13  E(vib)   ...       0.29
freq.     278.82  E(vib)   ...       0.28
freq.     287.10  E(vib)   ...       0.27
freq.     310.39  E(vib)   ...       0.26
freq.     343.61  E(vib)   ...       0.23
freq.     347.71  E(vib)   ...       0.23
freq.     359.52  E(vib)   ...       0.22
freq.     395.26  E(vib)   ...       0.20
freq.     404.10  E(vib)   ...       0.19
freq.     436.51  E(vib)   ...       0.17
freq.     456.21  E(vib)   ...       0.16
freq.     472.83  E(vib)   ...       0.15
freq.     505.53  E(vib)   ...       0.14
freq.     534.03  E(vib)   ...       0.13
freq.     564.60  E(vib)   ...       0.11
freq.     588.97  E(vib)   ...       0.10
freq.     665.17  E(vib)   ...       0.08
freq.     689.96  E(vib)   ...       0.07
freq.     782.45  E(vib)   ...       0.05
freq.     823.19  E(vib)   ...       0.05
freq.     848.28  E(vib)   ...       0.04
freq.     873.26  E(vib)   ...       0.04
freq.     905.57  E(vib)   ...       0.03
freq.     921.09  E(vib)   ...       0.03
freq.     938.20  E(vib)   ...       0.03
freq.     938.80  E(vib)   ...       0.03
freq.     952.77  E(vib)   ...       0.03
freq.     971.06  E(vib)   ...       0.03
freq.     979.69  E(vib)   ...       0.03
freq.     985.34  E(vib)   ...       0.02
freq.    1008.16  E(vib)   ...       0.02
freq.    1019.54  E(vib)   ...       0.02
freq.    1034.01  E(vib)   ...       0.02
freq.    1048.58  E(vib)   ...       0.02
freq.    1056.08  E(vib)   ...       0.02
freq.    1075.90  E(vib)   ...       0.02
freq.    1085.88  E(vib)   ...       0.02
freq.    1089.89  E(vib)   ...       0.02
freq.    1094.57  E(vib)   ...       0.02
freq.    1128.56  E(vib)   ...       0.01
freq.    1147.57  E(vib)   ...       0.01
freq.    1175.37  E(vib)   ...       0.01
freq.    1186.44  E(vib)   ...       0.01
freq.    1209.38  E(vib)   ...       0.01
freq.    1220.69  E(vib)   ...       0.01
freq.    1229.39  E(vib)   ...       0.01
freq.    1242.79  E(vib)   ...       0.01
freq.    1243.75  E(vib)   ...       0.01
freq.    1270.64  E(vib)   ...       0.01
freq.    1283.83  E(vib)   ...       0.01
freq.    1303.12  E(vib)   ...       0.01
freq.    1322.48  E(vib)   ...       0.01
freq.    1344.13  E(vib)   ...       0.01
freq.    1347.49  E(vib)   ...       0.01
freq.    1366.58  E(vib)   ...       0.01
freq.    1372.01  E(vib)   ...       0.01
freq.    1385.52  E(vib)   ...       0.00
freq.    1404.88  E(vib)   ...       0.00
freq.    1414.36  E(vib)   ...       0.00
freq.    1431.54  E(vib)   ...       0.00
freq.    1439.14  E(vib)   ...       0.00
freq.    1441.64  E(vib)   ...       0.00
freq.    1446.12  E(vib)   ...       0.00
freq.    1448.74  E(vib)   ...       0.00
freq.    1448.96  E(vib)   ...       0.00
freq.    1469.16  E(vib)   ...       0.00
freq.    1505.99  E(vib)   ...       0.00
freq.    1507.16  E(vib)   ...       0.00
freq.    1510.12  E(vib)   ...       0.00
freq.    1511.72  E(vib)   ...       0.00
freq.    1515.72  E(vib)   ...       0.00
freq.    1518.79  E(vib)   ...       0.00
freq.    1522.35  E(vib)   ...       0.00
freq.    1526.60  E(vib)   ...       0.00
freq.    1531.46  E(vib)   ...       0.00
freq.    1538.79  E(vib)   ...       0.00
freq.    1542.06  E(vib)   ...       0.00
freq.    1543.27  E(vib)   ...       0.00
freq.    1788.04  E(vib)   ...       0.00
freq.    3071.76  E(vib)   ...       0.00
freq.    3080.37  E(vib)   ...       0.00
freq.    3081.10  E(vib)   ...       0.00
freq.    3088.88  E(vib)   ...       0.00
freq.    3090.31  E(vib)   ...       0.00
freq.    3094.36  E(vib)   ...       0.00
freq.    3095.74  E(vib)   ...       0.00
freq.    3102.33  E(vib)   ...       0.00
freq.    3105.73  E(vib)   ...       0.00
freq.    3121.07  E(vib)   ...       0.00
freq.    3122.33  E(vib)   ...       0.00
freq.    3125.69  E(vib)   ...       0.00
freq.    3132.08  E(vib)   ...       0.00
freq.    3142.05  E(vib)   ...       0.00
freq.    3152.07  E(vib)   ...       0.00
freq.    3166.26  E(vib)   ...       0.00
freq.    3169.91  E(vib)   ...       0.00
freq.    3176.50  E(vib)   ...       0.00
freq.    3180.11  E(vib)   ...       0.00
freq.    3182.85  E(vib)   ...       0.00
freq.    3195.48  E(vib)   ...       0.00
freq.    3201.63  E(vib)   ...       0.00
freq.    3227.43  E(vib)   ...       0.00
freq.    3229.76  E(vib)   ...       0.00

------------
INNER ENERGY
------------

The inner energy is: U= E(el) + E(ZPE) + E(vib) + E(rot) + E(trans)
    E(el)   - is the total energy from the electronic structure calculation
              = E(kin-el) + E(nuc-el) + E(el-el) + E(nuc-nuc)
    E(ZPE)  - the the zero temperature vibrational energy from the frequency calculation
    E(vib)  - the the finite temperature correction to E(ZPE) due to population
              of excited vibrational states
    E(rot)  - is the rotational thermal energy
    E(trans)- is the translational thermal energy

Summary of contributions to the inner energy U:
Electronic energy                ...    -99.93106153 Eh
Zero point energy                ...      0.36655667 Eh     230.02 kcal/mol
Thermal vibrational correction   ...      0.01128972 Eh       7.08 kcal/mol
Thermal rotational correction    ...      0.00141627 Eh       0.89 kcal/mol
Thermal translational correction ...      0.00141627 Eh       0.89 kcal/mol
-----------------------------------------------------------------------
Total thermal energy                    -99.55038260 Eh

Summary of corrections to the electronic energy:
(perhaps to be used in another calculation)
Total thermal correction                  0.01412227 Eh       8.86 kcal/mol
Non-thermal (ZPE) correction              0.36655667 Eh     230.02 kcal/mol
-----------------------------------------------------------------------
Total correction                          0.38067893 Eh     238.88 kcal/mol

Rotational constants in cm-1:     0.029763     0.018379     0.016139

                             ****ORCA TERMINATED NORMALLY****
TOTAL RUN TIME: 0 days 0 hours 38 minutes 40 seconds 305 msec
