                         Program Version 6.0.1  -  RELEASE   -
|  1> ! wB97X-3c OPT FREQ TightSCF
|  2> %pal
|  3>   nprocs 40
|  4> end
|  5> * xyz 0 1
|  6> C     -3.110948    -1.696215     0.507592
|  7> C     -1.660423    -1.305826     0.171326
|  8> C     -0.696118    -2.172956     1.063296
|  9> C      0.837699    -2.144679     0.767345
| 10> C      1.204381    -1.159557    -0.339562
| 11> C      1.052010     0.278236     0.224537
| 12> C      2.363638    -0.179209    -0.415458
| 13> C      3.545211    -0.447263     0.523786
| 14> C      2.690420     0.371298    -1.808129
| 15> C     -0.238078     0.787393    -0.424324
| 16> C     -1.425434     0.229333     0.381955
| 17> C     -2.568734     1.188035     0.024550
| 18> C     -1.903415     2.566367    -0.054185
| 19> C     -0.469385     2.258554    -0.344678
| 20> C      0.449999     3.194789    -0.604809
| 21> H     -3.253518    -2.792907     0.402365
| 22> H     -3.822752    -1.210027    -0.191389
| 23> H     -3.363026    -1.401572     1.548977
| 24> H     -1.505016    -1.566334    -0.897974
| 25> H     -0.848830    -1.884630     2.126856
| 26> H     -1.016411    -3.236179     0.995447
| 27> H      1.161686    -3.152859     0.430875
| 28> H      1.391079    -1.939988     1.708003
| 29> H      0.780327    -1.393203    -1.342137
| 30> H      1.104722     0.367485     1.333610
| 31> H      4.095522    -1.346619     0.176744
| 32> H      4.236559     0.421054     0.505403
| 33> H      3.230763    -0.603051     1.575920
| 34> H      3.234452     1.333375    -1.708025
| 35> H      1.784097     0.544086    -2.423637
| 36> H      3.342391    -0.350013    -2.343620
| 37> H     -0.333369     0.511659    -1.499309
| 38> H     -1.241479     0.390099     1.471781
| 39> H     -3.372187     1.176755     0.792809
| 40> H     -2.993538     0.922882    -0.969219
| 41> H     -2.355069     3.178592    -0.864469
| 42> H     -1.983518     3.095969     0.919822
| 43> H      0.187943     4.247409    -0.566957
| 44> H      1.468345     2.919718    -0.855118
| 45> *
| 46>
| 47>                          ****END OF INPUT****
 Total Charge           Charge          ....    0
 Multiplicity           Mult            ....    1
 Number of Electrons    NEL             ....   84
Dispersion correction           -0.052372911
FINAL SINGLE POINT ENERGY       -99.875865314912
Dispersion correction             ... done (  0.1 sec)
Dispersion correction           -0.052810955
FINAL SINGLE POINT ENERGY       -99.894689129346
Dispersion correction             ... done (  0.1 sec)
Dispersion correction           -0.052952561
FINAL SINGLE POINT ENERGY       -99.901440842932
Dispersion correction             ... done (  0.1 sec)
FINAL SINGLE POINT ENERGY       -99.904388795575
FINAL SINGLE POINT ENERGY       -99.905555274883
FINAL SINGLE POINT ENERGY       -99.906206084158
FINAL SINGLE POINT ENERGY       -99.906687505320
FINAL SINGLE POINT ENERGY       -99.906965927613
FINAL SINGLE POINT ENERGY       -99.907081275850
FINAL SINGLE POINT ENERGY       -99.907121789607
FINAL SINGLE POINT ENERGY       -99.907131190062
Dispersion correction             ... done (  0.1 sec)
Dispersion correction           -0.052808837
FINAL SINGLE POINT ENERGY       -99.907135141633
Dispersion correction             ... done (  0.1 sec)
Dispersion correction           -0.052806159
FINAL SINGLE POINT ENERGY       -99.907136838664
Dispersion correction             ... done (  0.1 sec)
                    ***********************HURRAY********************

CARTESIAN COORDINATES (ANGSTROEM)
---------------------------------
  C     -3.021531   -1.663673    0.687635
  C     -1.612825   -1.280095    0.251423
  C     -0.603997   -2.042044    1.147344
  C      0.811586   -2.307512    0.594530
  C      1.172806   -1.203977   -0.351553
  C      1.006962    0.193106    0.141543
  C      2.309582   -0.233354   -0.469965
  C      3.481315   -0.332725    0.468451
  C      2.679430    0.219095   -1.856861
  C     -0.217700    0.844582   -0.406061
  C     -1.443010    0.249552    0.309685
  C     -2.563460    1.126639   -0.243829
  C     -1.949975    2.534693   -0.263390
  C     -0.451873    2.318730   -0.271140
  C      0.481726    3.243620   -0.127221
  H     -3.159463   -2.743622    0.645077
  H     -3.782018   -1.208451    0.056095
  H     -3.208535   -1.347547    1.716210
  H     -1.492055   -1.603780   -0.787616
  H     -0.520424   -1.483277    2.082943
  H     -1.048786   -3.000186    1.422378
  H      0.840109   -3.269898    0.079842
  H      1.512177   -2.384463    1.427280
  H      0.692162   -1.343504   -1.313556
  H      1.073753    0.289916    1.221529
  H      4.219371   -1.040300    0.088115
  H      3.971155    0.635712    0.579062
  H      3.179695   -0.667274    1.459402
  H      3.174738    1.190577   -1.824604
  H      1.804733    0.316205   -2.497139
  H      3.362301   -0.490018   -2.326997
  H     -0.316019    0.599217   -1.470533
  H     -1.334758    0.510167    1.371543
  H     -3.476555    1.088732    0.346568
  H     -2.817546    0.803325   -1.256639
  H     -2.276719    3.117625   -1.124164
  H     -2.239005    3.096189    0.625510
  H      0.231803    4.291112   -0.014543
  H      1.530845    2.976905   -0.116354

 Multiplicity           Mult            ....    1
 Number of Electrons    NEL             ....   84
 Basis Dimension        Dim             ....  315

ORBITAL ENERGIES
----------------

  NO   OCC          E(Eh)            E(eV)
   0   2.0000      -1.031085       -28.0573
   1   2.0000      -0.990928       -26.9645
   2   2.0000      -0.943926       -25.6855
   3   2.0000      -0.891935       -24.2708
   4   2.0000      -0.874259       -23.7898
   5   2.0000      -0.868313       -23.6280
   6   2.0000      -0.830045       -22.5867
   7   2.0000      -0.824417       -22.4335
   8   2.0000      -0.775205       -21.0944
   9   2.0000      -0.767066       -20.8729
  10   2.0000      -0.730601       -19.8807
  11   2.0000      -0.694116       -18.8879
  12   2.0000      -0.686414       -18.6783
  13   2.0000      -0.654384       -17.8067
  14   2.0000      -0.625578       -17.0228
  15   2.0000      -0.598789       -16.2939
  16   2.0000      -0.590903       -16.0793
  17   2.0000      -0.577745       -15.7212
  18   2.0000      -0.568657       -15.4740
  19   2.0000      -0.553989       -15.0748
  20   2.0000      -0.547815       -14.9068
  21   2.0000      -0.534719       -14.5504
  22   2.0000      -0.523552       -14.2466
  23   2.0000      -0.517089       -14.0707
  24   2.0000      -0.511908       -13.9297
  25   2.0000      -0.505640       -13.7592
  26   2.0000      -0.496475       -13.5098
  27   2.0000      -0.491334       -13.3699
  28   2.0000      -0.482556       -13.1310
  29   2.0000      -0.470923       -12.8145
  30   2.0000      -0.463806       -12.6208
  31   2.0000      -0.457352       -12.4452
  32   2.0000      -0.453219       -12.3327
  33   2.0000      -0.436877       -11.8880
  34   2.0000      -0.434995       -11.8368
  35   2.0000      -0.423402       -11.5214
  36   2.0000      -0.418466       -11.3870
  37   2.0000      -0.411175       -11.1886
  38   2.0000      -0.403230       -10.9724
  39   2.0000      -0.362315        -9.8591
  40   2.0000      -0.348379        -9.4799
  41   2.0000      -0.334986        -9.1154
  42   0.0000       0.077372         2.1054
  43   0.0000       0.091474         2.4891
  44   0.0000       0.093998         2.5578
  45   0.0000       0.096135         2.6160
  46   0.0000       0.102623         2.7925

MULLIKEN ATOMIC CHARGES
-----------------------
   0 C :   -0.036917
   1 C :   -0.082104
   2 C :   -0.037908
   3 C :   -0.018598
   4 C :   -0.038443
   5 C :   -0.008602
   6 C :   -0.096574
   7 C :   -0.014009
   8 C :   -0.012184
   9 C :   -0.088596
  10 C :   -0.074874
  11 C :   -0.036663
  12 C :   -0.050915
  13 C :   -0.051221
  14 C :   -0.015890
  15 H :    0.028378
  16 H :    0.023471
  17 H :    0.025679
  18 H :    0.030473
  19 H :    0.023758
  20 H :    0.022586
  21 H :    0.029657
  22 H :    0.024794
  23 H :    0.017631
  24 H :    0.024970
  25 H :    0.030801
  26 H :    0.027045
  27 H :    0.016830
  28 H :    0.023012
  29 H :    0.022364
  30 H :    0.030268
  31 H :    0.036394
  32 H :    0.031311
  33 H :    0.037587
  34 H :    0.028404
  35 H :    0.048431
  36 H :    0.045608
  37 H :    0.018713
  38 H :    0.015333
Sum of atomic charges:   -0.0000000

LOEWDIN ATOMIC CHARGES
----------------------
   0 C :   -0.108949
   1 C :   -0.057213
   2 C :   -0.065674
   3 C :   -0.079585
   4 C :   -0.053234
   5 C :   -0.042116
   6 C :   -0.066183
   7 C :   -0.099763
   8 C :   -0.099047
   9 C :   -0.063236
  10 C :   -0.047145
  11 C :   -0.071951
  12 C :   -0.062807
  13 C :   -0.033232
  14 C :   -0.086643
  15 H :    0.042689
  16 H :    0.041856
  17 H :    0.044020
  18 H :    0.039757
  19 H :    0.038639
  20 H :    0.042030
  21 H :    0.043359
  22 H :    0.043649
  23 H :    0.042219
  24 H :    0.046652
  25 H :    0.046685
  26 H :    0.046006
  27 H :    0.044348
  28 H :    0.045267
  29 H :    0.045729
  30 H :    0.046046
  31 H :    0.051054
  32 H :    0.046096
  33 H :    0.039946
  34 H :    0.040409
  35 H :    0.047025
  36 H :    0.048665
  37 H :    0.032279
  38 H :    0.032352

  Mayer bond orders larger than 0.100000
B(  0-C ,  1-C ) :   1.0112 B(  0-C , 15-H ) :   0.9947 B(  0-C , 16-H ) :   0.9942
B(  0-C , 17-H ) :   0.9896 B(  1-C ,  2-C ) :   0.9790 B(  1-C , 10-C ) :   0.9816
B(  1-C , 18-H ) :   0.9886 B(  2-C ,  3-C ) :   0.9921 B(  2-C , 19-H ) :   0.9960
B(  2-C , 20-H ) :   1.0041 B(  3-C ,  4-C ) :   0.9996 B(  3-C , 21-H ) :   0.9956
B(  3-C , 22-H ) :   0.9948 B(  4-C ,  5-C ) :   0.8952 B(  4-C ,  6-C ) :   0.9594
B(  4-C , 23-H ) :   0.9938 B(  5-C ,  6-C ) :   0.9507 B(  5-C ,  9-C ) :   1.0274
B(  5-C , 24-H ) :   0.9863 B(  6-C ,  7-C ) :   1.0260 B(  6-C ,  8-C ) :   1.0252
B(  7-C , 25-H ) :   0.9860 B(  7-C , 26-H ) :   0.9852 B(  7-C , 27-H ) :   0.9885
B(  8-C , 28-H ) :   0.9850 B(  8-C , 29-H ) :   0.9876 B(  8-C , 30-H ) :   0.9863
B(  9-C , 10-C ) :   0.9689 B(  9-C , 13-C ) :   1.0462 B(  9-C , 31-H ) :   0.9644
B( 10-C , 11-C ) :   0.9926 B( 10-C , 32-H ) :   0.9856 B( 11-C , 12-C ) :   0.9912
B( 11-C , 33-H ) :   0.9988 B( 11-C , 34-H ) :   0.9931 B( 12-C , 13-C ) :   1.0068
B( 12-C , 35-H ) :   0.9861 B( 12-C , 36-H ) :   0.9859 B( 13-C , 14-C ) :   1.9619
B( 14-C , 37-H ) :   0.9741 B( 14-C , 38-H ) :   0.9829

Dispersion correction           -0.052804768
FINAL SINGLE POINT ENERGY       -99.907138009239

DIPOLE MOMENT
-------------

Method             : SCF
Type of density    : Electron Density
Multiplicity       :   1
Irrep              :   0
Energy             :   -99.8543332407525241 Eh
Relativity type    :
Basis              : AO
                                X                 Y                 Z
Electronic contribution:      0.057174151       4.556512429      -1.130773850
Nuclear contribution   :     -0.227432252      -4.795823630       1.120546208
                        -----------------------------------------
Total Dipole Moment    :     -0.170258101      -0.239311201      -0.010227642
                        -----------------------------------------
Magnitude (a.u.)       :      0.293874593
Magnitude (Debye)      :      0.746969852

VIBRATIONAL FREQUENCIES
-----------------------

Scaling factor for frequencies =  1.000000000  (already applied!)

     0:       0.00 cm**-1
     1:       0.00 cm**-1
     2:       0.00 cm**-1
     3:       0.00 cm**-1
     4:       0.00 cm**-1
     5:       0.00 cm**-1
     6:      61.58 cm**-1
     7:      82.58 cm**-1
     8:     132.26 cm**-1
     9:     135.72 cm**-1
    10:     146.41 cm**-1
    11:     169.69 cm**-1
    12:     202.18 cm**-1
    13:     218.33 cm**-1
    14:     227.99 cm**-1
    15:     244.13 cm**-1
    16:     270.63 cm**-1
    17:     291.00 cm**-1
    18:     314.51 cm**-1
    19:     331.26 cm**-1
    20:     357.30 cm**-1
    21:     382.80 cm**-1
    22:     403.47 cm**-1
    23:     445.03 cm**-1
    24:     456.60 cm**-1
    25:     471.92 cm**-1
    26:     535.89 cm**-1
    27:     557.18 cm**-1
    28:     590.14 cm**-1
    29:     599.90 cm**-1
    30:     635.20 cm**-1
    31:     720.66 cm**-1
    32:     747.05 cm**-1
    33:     795.35 cm**-1
    34:     841.53 cm**-1
    35:     865.92 cm**-1
    36:     902.27 cm**-1
    37:     919.13 cm**-1
    38:     928.82 cm**-1
    39:     937.35 cm**-1
    40:     960.53 cm**-1
    41:     979.97 cm**-1
    42:     989.45 cm**-1
    43:     995.78 cm**-1
    44:    1008.08 cm**-1
    45:    1015.39 cm**-1
    46:    1028.29 cm**-1
    47:    1053.83 cm**-1
    48:    1065.99 cm**-1
    49:    1080.61 cm**-1
    50:    1089.42 cm**-1
    51:    1110.76 cm**-1
    52:    1126.17 cm**-1
    53:    1148.78 cm**-1
    54:    1159.80 cm**-1
    55:    1165.04 cm**-1
    56:    1177.24 cm**-1
    57:    1183.45 cm**-1
    58:    1215.39 cm**-1
    59:    1228.64 cm**-1
    60:    1247.00 cm**-1
    61:    1258.56 cm**-1
    62:    1274.44 cm**-1
    63:    1290.33 cm**-1
    64:    1304.03 cm**-1
    65:    1319.90 cm**-1
    66:    1334.05 cm**-1
    67:    1344.61 cm**-1
    68:    1352.46 cm**-1
    69:    1363.24 cm**-1
    70:    1370.34 cm**-1
    71:    1379.02 cm**-1
    72:    1393.85 cm**-1
    73:    1396.89 cm**-1
    74:    1421.68 cm**-1
    75:    1441.99 cm**-1
    76:    1444.54 cm**-1
    77:    1448.67 cm**-1
    78:    1456.63 cm**-1
    79:    1466.23 cm**-1
    80:    1478.82 cm**-1
    81:    1504.51 cm**-1
    82:    1509.63 cm**-1
    83:    1511.34 cm**-1
    84:    1520.09 cm**-1
    85:    1526.31 cm**-1
    86:    1528.50 cm**-1
    87:    1530.69 cm**-1
    88:    1531.98 cm**-1
    89:    1535.35 cm**-1
    90:    1541.16 cm**-1
    91:    1586.78 cm**-1
    92:    1792.17 cm**-1
    93:    3038.24 cm**-1
    94:    3060.54 cm**-1
    95:    3081.80 cm**-1
    96:    3089.63 cm**-1
    97:    3092.50 cm**-1
    98:    3093.98 cm**-1
    99:    3095.40 cm**-1
   100:    3099.78 cm**-1
   101:    3103.97 cm**-1
   102:    3120.06 cm**-1
   103:    3139.04 cm**-1
   104:    3157.15 cm**-1
   105:    3167.81 cm**-1
   106:    3174.04 cm**-1
   107:    3175.33 cm**-1
   108:    3176.90 cm**-1
   109:    3178.06 cm**-1
   110:    3181.80 cm**-1
   111:    3188.34 cm**-1
   112:    3197.35 cm**-1
   113:    3197.77 cm**-1
   114:    3199.32 cm**-1
   115:    3201.72 cm**-1
   116:    3296.62 cm**-1

IR SPECTRUM
-----------

 Mode   freq       eps      Int      T**2         TX        TY        TZ
       cm**-1   L/(mol*cm) km/mol    a.u.
----------------------------------------------------------------------------
  6:     61.58   0.000020    0.10  0.000100  ( 0.001828 -0.000111 -0.009837)
  7:     82.58   0.000000    0.00  0.000002  (-0.000699 -0.000868 -0.000510)
  8:    132.26   0.000012    0.06  0.000029  ( 0.003473 -0.001675  0.003712)
  9:    135.72   0.000083    0.42  0.000191  (-0.004878  0.012811  0.001718)
 10:    146.41   0.000031    0.16  0.000066  ( 0.003623 -0.004856 -0.005398)
 11:    169.69   0.000015    0.08  0.000028  (-0.001711 -0.005000 -0.000166)
 12:    202.18   0.000012    0.06  0.000018  (-0.001025  0.002316  0.003452)
 13:    218.33   0.000020    0.10  0.000029  (-0.003188  0.001488  0.004016)
 14:    227.99   0.000020    0.10  0.000027  ( 0.002641 -0.003349 -0.002923)
 15:    244.13   0.000006    0.03  0.000008  (-0.000357 -0.002588 -0.000952)
 16:    270.63   0.000017    0.09  0.000019  (-0.000878 -0.003786 -0.002094)
 17:    291.00   0.000116    0.59  0.000125  (-0.001062 -0.004835 -0.010006)
 18:    314.51   0.000062    0.32  0.000062  (-0.001868  0.005509 -0.005303)
 19:    331.26   0.000040    0.20  0.000038  (-0.001563 -0.002159  0.005534)
 20:    357.30   0.000007    0.03  0.000006  (-0.002240  0.000083 -0.000941)
 21:    382.80   0.000308    1.55  0.000251  ( 0.000690  0.002044 -0.015686)
 22:    403.47   0.000134    0.68  0.000104  ( 0.001309 -0.005304  0.008588)
 23:    445.03   0.000026    0.13  0.000018  ( 0.002941 -0.002288 -0.002135)
 24:    456.60   0.000131    0.66  0.000089  (-0.000930 -0.002670  0.009015)
 25:    471.92   0.000158    0.80  0.000105  (-0.003363  0.005119 -0.008201)
 26:    535.89   0.000355    1.79  0.000207  ( 0.002787 -0.004254  0.013449)
 27:    557.18   0.000147    0.74  0.000082  (-0.007144  0.003851  0.004065)
 28:    590.14   0.000429    2.17  0.000227  (-0.003543 -0.001597  0.014547)
 29:    599.90   0.000021    0.11  0.000011  ( 0.002076  0.002443  0.000749)
 30:    635.20   0.000330    1.67  0.000162  ( 0.008477  0.007362 -0.006008)
 31:    720.66   0.000150    0.76  0.000065  ( 0.001519 -0.001340 -0.007799)
 32:    747.05   0.000187    0.94  0.000078  ( 0.003206 -0.008065 -0.001645)
 33:    795.35   0.000502    2.54  0.000197  ( 0.005935  0.011792  0.004760)
 34:    841.53   0.000276    1.40  0.000103  ( 0.008888  0.004827 -0.000468)
 35:    865.92   0.000111    0.56  0.000040  (-0.005990  0.000138 -0.002057)
 36:    902.27   0.001283    6.48  0.000444  ( 0.009070  0.006705 -0.017792)
 37:    919.13   0.000284    1.44  0.000097  (-0.001877  0.001456 -0.009535)
 38:    928.82   0.004927   24.90  0.001655  (-0.001060 -0.007406  0.039993)
 39:    937.35   0.001477    7.47  0.000492  ( 0.000562 -0.001349 -0.022130)
 40:    960.53   0.000627    3.17  0.000204  (-0.005130 -0.006725 -0.011498)
 41:    979.97   0.000181    0.91  0.000058  (-0.006832  0.000022  0.003301)
 42:    989.45   0.000530    2.68  0.000167  ( 0.000993 -0.006986 -0.010837)
 43:    995.78   0.000571    2.89  0.000179  (-0.007247  0.011250  0.000077)
 44:   1008.08   0.000195    0.99  0.000060  ( 0.005586  0.001109 -0.005293)
 45:   1015.39   0.001851    9.35  0.000569  (-0.023300 -0.002176  0.004608)
 46:   1028.29   0.000238    1.20  0.000072  ( 0.004006 -0.006657  0.003434)
 47:   1053.83   0.000148    0.75  0.000044  ( 0.002125 -0.003318  0.005322)
 48:   1065.99   0.001672    8.45  0.000489  ( 0.003257 -0.021357 -0.004770)
 49:   1080.61   0.000194    0.98  0.000056  ( 0.006712  0.000703 -0.003229)
 50:   1089.42   0.000015    0.07  0.000004  (-0.000451 -0.001123  0.001664)
 51:   1110.76   0.000258    1.30  0.000072  (-0.008464  0.000554 -0.000705)
 52:   1126.17   0.000168    0.85  0.000047  ( 0.004528 -0.001448 -0.004892)
 53:   1148.78   0.000880    4.45  0.000239  ( 0.010878  0.009263 -0.005905)
 54:   1159.80   0.000362    1.83  0.000097  ( 0.000175  0.009825  0.000965)
 55:   1165.04   0.000345    1.74  0.000092  (-0.006388  0.005937  0.004051)
 56:   1177.24   0.000627    3.17  0.000166  ( 0.000965 -0.011953 -0.004728)
 57:   1183.45   0.000223    1.13  0.000059  (-0.007564 -0.000781 -0.001007)
 58:   1215.39   0.000303    1.53  0.000078  (-0.006794  0.005577  0.000669)
 59:   1228.64   0.001911    9.66  0.000485  (-0.008315  0.020252 -0.002457)
 60:   1247.00   0.000121    0.61  0.000030  ( 0.000825  0.005442 -0.000083)
 61:   1258.56   0.000179    0.91  0.000044  ( 0.004757 -0.003690  0.002865)
 62:   1274.44   0.000175    0.88  0.000043  ( 0.003329  0.005424 -0.001531)
 63:   1290.33   0.000443    2.24  0.000107  ( 0.000883 -0.010122 -0.001949)
 64:   1304.03   0.000413    2.09  0.000099  (-0.006634  0.000332 -0.007393)
 65:   1319.90   0.000230    1.16  0.000054  (-0.001581  0.004114  0.005904)
 66:   1334.05   0.000079    0.40  0.000018  (-0.002422  0.002094  0.002863)
 67:   1344.61   0.000209    1.06  0.000049  ( 0.001011 -0.006889 -0.000162)
 68:   1352.46   0.000084    0.42  0.000019  (-0.000578 -0.003179 -0.002980)
 69:   1363.24   0.000481    2.43  0.000110  (-0.007088  0.002131  0.007437)
 70:   1370.34   0.000262    1.32  0.000060  ( 0.002255 -0.006330  0.003805)
 71:   1379.02   0.000699    3.53  0.000158  ( 0.005341  0.008657 -0.007390)
 72:   1393.85   0.000383    1.93  0.000086  ( 0.005276 -0.002629 -0.007137)
 73:   1396.89   0.000615    3.11  0.000137  (-0.009030 -0.007478  0.000097)
 74:   1421.68   0.000439    2.22  0.000096  ( 0.000744  0.003944 -0.008961)
 75:   1441.99   0.000378    1.91  0.000082  (-0.006458 -0.005737 -0.002699)
 76:   1444.54   0.001395    7.05  0.000301  ( 0.014669  0.004377 -0.008186)
 77:   1448.67   0.002950   14.91  0.000635  (-0.008732 -0.003220 -0.023428)
 78:   1456.63   0.000684    3.46  0.000147  (-0.008837 -0.001896  0.008053)
 79:   1466.23   0.001117    5.64  0.000238  ( 0.009245  0.010704  0.006139)
 80:   1478.82   0.001237    6.25  0.000261  (-0.000384 -0.011861  0.010960)
 81:   1504.51   0.001563    7.90  0.000324  (-0.004916  0.016502  0.005261)
 82:   1509.63   0.000211    1.07  0.000044  (-0.001667  0.003475  0.005368)
 83:   1511.34   0.001127    5.70  0.000233  ( 0.009074 -0.005578 -0.010922)
 84:   1520.09   0.000421    2.13  0.000086  (-0.006537  0.000323 -0.006600)
 85:   1526.31   0.000562    2.84  0.000115  ( 0.010113  0.003002 -0.001923)
 86:   1528.50   0.000518    2.62  0.000106  (-0.010042  0.001477 -0.001640)
 87:   1530.69   0.001805    9.12  0.000368  (-0.007915  0.017262 -0.002717)
 88:   1531.98   0.003904   19.73  0.000795  ( 0.013810  0.010775  0.022100)
 89:   1535.35   0.001925    9.73  0.000391  (-0.002004 -0.012261  0.015395)
 90:   1541.16   0.000853    4.31  0.000173  ( 0.003429 -0.012085 -0.003867)
 91:   1586.78   0.000243    1.23  0.000048  (-0.000028  0.005955 -0.003498)
 92:   1792.17   0.005762   29.12  0.001003  (-0.022138 -0.022452 -0.003015)
 93:   3038.24   0.001329    6.72  0.000137  ( 0.000701  0.003113  0.011241)
 94:   3060.54   0.002617   13.23  0.000267  (-0.003167 -0.003272 -0.015689)
 95:   3081.80   0.002212   11.18  0.000224  ( 0.002600 -0.005593 -0.013635)
 96:   3089.63   0.003191   16.13  0.000322  ( 0.003448  0.006029  0.016554)
 97:   3092.50   0.005892   29.78  0.000595  (-0.004442  0.004368 -0.023575)
 98:   3093.98   0.007270   36.74  0.000733  ( 0.022800  0.001492 -0.014533)
 99:   3095.40   0.014564   73.60  0.001468  ( 0.033833  0.009437 -0.015317)
100:   3099.78   0.006761   34.17  0.000681  ( 0.016952  0.010802  0.016631)
101:   3103.97   0.011924   60.26  0.001199  ( 0.010555 -0.029352  0.015031)
102:   3120.06   0.005332   26.95  0.000533  ( 0.014725 -0.017507  0.003159)
103:   3139.04   0.004330   21.88  0.000430  (-0.001374 -0.020381  0.003636)
104:   3157.15   0.003619   18.29  0.000358  ( 0.009167  0.013439  0.009647)
105:   3167.81   0.001607    8.12  0.000158  (-0.011815  0.002075 -0.003797)
106:   3174.04   0.000954    4.82  0.000094  ( 0.001868  0.001841  0.009325)
107:   3175.33   0.000105    0.53  0.000010  (-0.001541  0.002812  0.000199)
108:   3176.90   0.006191   31.28  0.000608  ( 0.004246 -0.023343 -0.006721)
109:   3178.06   0.005401   27.30  0.000530  (-0.005313 -0.018356 -0.012853)
110:   3181.80   0.005179   26.17  0.000508  (-0.012232 -0.001509  0.018869)
111:   3188.34   0.004811   24.31  0.000471  (-0.005419 -0.009902 -0.018533)
112:   3197.35   0.004548   22.98  0.000444  ( 0.012595  0.001984 -0.016772)
113:   3197.77   0.004173   21.09  0.000407  (-0.009043  0.013937 -0.011454)
114:   3199.32   0.005102   25.79  0.000498  ( 0.019235  0.000837  0.011270)
115:   3201.72   0.001819    9.19  0.000177  (-0.005348 -0.012188 -0.000418)
116:   3296.62   0.001103    5.58  0.000104  (-0.007131  0.007306  0.000469)

--------------------------
THERMOCHEMISTRY AT 298.15K
--------------------------

Temperature         ...   298.15 K
Pressure            ...     1.00 atm
Total Mass          ...   204.36 AMU
Quasi RRHO          ...     True
Cut-Off Frequency   ...     1.00 cm^-1

Throughout the following assumptions are being made:
  (1) The electronic state is orbitally nondegenerate
  (2) There are no thermally accessible electronically excited states
  (3) Hindered rotations indicated by low frequency modes are not
      treated as such but are treated as vibrations and this may
      cause some error
  (4) All equations used are the standard statistical mechanics
      equations for an ideal gas
  (5) All vibrations are strictly harmonic

freq.      61.58  E(vib)   ...       0.51
freq.      82.58  E(vib)   ...       0.48
freq.     132.26  E(vib)   ...       0.42
freq.     135.72  E(vib)   ...       0.42
freq.     146.41  E(vib)   ...       0.41
freq.     169.69  E(vib)   ...       0.38
freq.     202.18  E(vib)   ...       0.35
freq.     218.33  E(vib)   ...       0.33
freq.     227.99  E(vib)   ...       0.33
freq.     244.13  E(vib)   ...       0.31
freq.     270.63  E(vib)   ...       0.29
freq.     291.00  E(vib)   ...       0.27
freq.     314.51  E(vib)   ...       0.25
freq.     331.26  E(vib)   ...       0.24
freq.     357.30  E(vib)   ...       0.22
freq.     382.80  E(vib)   ...       0.20
freq.     403.47  E(vib)   ...       0.19
freq.     445.03  E(vib)   ...       0.17
freq.     456.60  E(vib)   ...       0.16
freq.     471.92  E(vib)   ...       0.15
freq.     535.89  E(vib)   ...       0.12
freq.     557.18  E(vib)   ...       0.12
freq.     590.14  E(vib)   ...       0.10
freq.     599.90  E(vib)   ...       0.10
freq.     635.20  E(vib)   ...       0.09
freq.     720.66  E(vib)   ...       0.07
freq.     747.05  E(vib)   ...       0.06
freq.     795.35  E(vib)   ...       0.05
freq.     841.53  E(vib)   ...       0.04
freq.     865.92  E(vib)   ...       0.04
freq.     902.27  E(vib)   ...       0.03
freq.     919.13  E(vib)   ...       0.03
freq.     928.82  E(vib)   ...       0.03
freq.     937.35  E(vib)   ...       0.03
freq.     960.53  E(vib)   ...       0.03
freq.     979.97  E(vib)   ...       0.02
freq.     989.45  E(vib)   ...       0.02
freq.     995.78  E(vib)   ...       0.02
freq.    1008.08  E(vib)   ...       0.02
freq.    1015.39  E(vib)   ...       0.02
freq.    1028.29  E(vib)   ...       0.02
freq.    1053.83  E(vib)   ...       0.02
freq.    1065.99  E(vib)   ...       0.02
freq.    1080.61  E(vib)   ...       0.02
freq.    1089.42  E(vib)   ...       0.02
freq.    1110.76  E(vib)   ...       0.01
freq.    1126.17  E(vib)   ...       0.01
freq.    1148.78  E(vib)   ...       0.01
freq.    1159.80  E(vib)   ...       0.01
freq.    1165.04  E(vib)   ...       0.01
freq.    1177.24  E(vib)   ...       0.01
freq.    1183.45  E(vib)   ...       0.01
freq.    1215.39  E(vib)   ...       0.01
freq.    1228.64  E(vib)   ...       0.01
freq.    1247.00  E(vib)   ...       0.01
freq.    1258.56  E(vib)   ...       0.01
freq.    1274.44  E(vib)   ...       0.01
freq.    1290.33  E(vib)   ...       0.01
freq.    1304.03  E(vib)   ...       0.01
freq.    1319.90  E(vib)   ...       0.01
freq.    1334.05  E(vib)   ...       0.01
freq.    1344.61  E(vib)   ...       0.01
freq.    1352.46  E(vib)   ...       0.01
freq.    1363.24  E(vib)   ...       0.01
freq.    1370.34  E(vib)   ...       0.01
freq.    1379.02  E(vib)   ...       0.01
freq.    1393.85  E(vib)   ...       0.00
freq.    1396.89  E(vib)   ...       0.00
freq.    1421.68  E(vib)   ...       0.00
freq.    1441.99  E(vib)   ...       0.00
freq.    1444.54  E(vib)   ...       0.00
freq.    1448.67  E(vib)   ...       0.00
freq.    1456.63  E(vib)   ...       0.00
freq.    1466.23  E(vib)   ...       0.00
freq.    1478.82  E(vib)   ...       0.00
freq.    1504.51  E(vib)   ...       0.00
freq.    1509.63  E(vib)   ...       0.00
freq.    1511.34  E(vib)   ...       0.00
freq.    1520.09  E(vib)   ...       0.00
freq.    1526.31  E(vib)   ...       0.00
freq.    1528.50  E(vib)   ...       0.00
freq.    1530.69  E(vib)   ...       0.00
freq.    1531.98  E(vib)   ...       0.00
freq.    1535.35  E(vib)   ...       0.00
freq.    1541.16  E(vib)   ...       0.00
freq.    1586.78  E(vib)   ...       0.00
freq.    1792.17  E(vib)   ...       0.00
freq.    3038.24  E(vib)   ...       0.00
freq.    3060.54  E(vib)   ...       0.00
freq.    3081.80  E(vib)   ...       0.00
freq.    3089.63  E(vib)   ...       0.00
freq.    3092.50  E(vib)   ...       0.00
freq.    3093.98  E(vib)   ...       0.00
freq.    3095.40  E(vib)   ...       0.00
freq.    3099.78  E(vib)   ...       0.00
freq.    3103.97  E(vib)   ...       0.00
freq.    3120.06  E(vib)   ...       0.00
freq.    3139.04  E(vib)   ...       0.00
freq.    3157.15  E(vib)   ...       0.00
freq.    3167.81  E(vib)   ...       0.00
freq.    3174.04  E(vib)   ...       0.00
freq.    3175.33  E(vib)   ...       0.00
freq.    3176.90  E(vib)   ...       0.00
freq.    3178.06  E(vib)   ...       0.00
freq.    3181.80  E(vib)   ...       0.00
freq.    3188.34  E(vib)   ...       0.00
freq.    3197.35  E(vib)   ...       0.00
freq.    3197.77  E(vib)   ...       0.00
freq.    3199.32  E(vib)   ...       0.00
freq.    3201.72  E(vib)   ...       0.00
freq.    3296.62  E(vib)   ...       0.00

------------
INNER ENERGY
------------

The inner energy is: U= E(el) + E(ZPE) + E(vib) + E(rot) + E(trans)
    E(el)   - is the total energy from the electronic structure calculation
              = E(kin-el) + E(nuc-el) + E(el-el) + E(nuc-nuc)
    E(ZPE)  - the the zero temperature vibrational energy from the frequency calculation
    E(vib)  - the the finite temperature correction to E(ZPE) due to population
              of excited vibrational states
    E(rot)  - is the rotational thermal energy
    E(trans)- is the translational thermal energy

Summary of contributions to the inner energy U:
Electronic energy                ...    -99.90713801 Eh
Zero point energy                ...      0.36591323 Eh     229.61 kcal/mol
Thermal vibrational correction   ...      0.01195461 Eh       7.50 kcal/mol
Thermal rotational correction    ...      0.00141627 Eh       0.89 kcal/mol
Thermal translational correction ...      0.00141627 Eh       0.89 kcal/mol
-----------------------------------------------------------------------
Total thermal energy                    -99.52643764 Eh

Summary of corrections to the electronic energy:
(perhaps to be used in another calculation)
Total thermal correction                  0.01478715 Eh       9.28 kcal/mol
Non-thermal (ZPE) correction              0.36591323 Eh     229.61 kcal/mol
-----------------------------------------------------------------------
Total correction                          0.38070037 Eh     238.89 kcal/mol

Rotational constants in cm-1:     0.024840     0.019148     0.012100

                             ****ORCA TERMINATED NORMALLY****
TOTAL RUN TIME: 0 days 0 hours 30 minutes 33 seconds 471 msec
