                         Program Version 6.0.1  -  RELEASE   -
|  1> ! wB97X-3c OPT FREQ TightSCF
|  2> %pal
|  3>   nprocs 40
|  4> end
|  5> * xyz 0 1
|  6> C     -3.837082    -1.366796     1.587311
|  7> C     -3.105955    -0.470926     0.621009
|  8> C     -2.001463    -0.950538     0.007482
|  9> C     -1.147023    -0.159365    -0.950918
| 10> C     -0.058246     0.611679    -0.197426
| 11> C      0.785416     1.423749    -1.160246
| 12> C      1.916910     0.946253    -1.725845
| 13> C      2.503773    -0.406650    -1.433877
| 14> O      3.049455    -0.418757    -0.118910
| 15> C      3.639926    -1.554474     0.441400
| 16> O      3.743804    -2.621388    -0.222911
| 17> C      4.194970    -1.487591     1.823306
| 18> C      0.310321     2.798029    -1.554437
| 19> C     -3.630552     0.920342     0.352670
| 20> H     -4.173652    -2.287354     1.064889
| 21> H     -3.160428    -1.649673     2.421395
| 22> H     -4.729304    -0.866763     2.018180
| 23> H     -1.675578    -1.964069     0.229088
| 24> H     -0.667860    -0.871881    -1.655510
| 25> H     -1.765099     0.532261    -1.561730
| 26> H      0.564392    -0.092359     0.393086
| 27> H     -0.526297     1.297070     0.540376
| 28> H      2.453388     1.571499    -2.435529
| 29> H      3.314432    -0.612548    -2.165694
| 30> H      1.730044    -1.196285    -1.540801
| 31> H      3.688975    -0.682361     2.396118
| 32> H      4.034563    -2.454114     2.346012
| 33> H      5.282553    -1.272375     1.774961
| 34> H     -0.650346     3.050684    -1.057741
| 35> H      0.154230     2.842337    -2.653226
| 36> H      1.067844     3.555585    -1.262085
| 37> H     -4.525757     1.143094     0.969488
| 38> H     -3.922580     1.015557    -0.714014
| 39> H     -2.857776     1.678130     0.594261
| 40> *
| 41>
| 42>                          ****END OF INPUT****
 Total Charge           Charge          ....    0
 Multiplicity           Mult            ....    1
 Number of Electrons    NEL             ....   80
Dispersion correction           -0.036288793
FINAL SINGLE POINT ENERGY      -112.507128815211
Dispersion correction             ... done (  0.1 sec)
Dispersion correction           -0.036759895
FINAL SINGLE POINT ENERGY      -112.528034892830
Dispersion correction             ... done (  0.1 sec)
Dispersion correction           -0.036751948
FINAL SINGLE POINT ENERGY      -112.530457605672
Dispersion correction             ... done (  0.1 sec)
FINAL SINGLE POINT ENERGY      -112.531173184591
FINAL SINGLE POINT ENERGY      -112.531192809367
FINAL SINGLE POINT ENERGY      -112.531787467386
FINAL SINGLE POINT ENERGY      -112.532109426338
FINAL SINGLE POINT ENERGY      -112.533191437948
FINAL SINGLE POINT ENERGY      -112.533993999534
FINAL SINGLE POINT ENERGY      -112.535119409284
FINAL SINGLE POINT ENERGY      -112.541337085489
FINAL SINGLE POINT ENERGY      -112.541346009147
FINAL SINGLE POINT ENERGY      -112.541352640630
FINAL SINGLE POINT ENERGY      -112.541357622584
FINAL SINGLE POINT ENERGY      -112.541363198266
FINAL SINGLE POINT ENERGY      -112.541369587794
FINAL SINGLE POINT ENERGY      -112.541375668361
Dispersion correction             ... done (  0.1 sec)
Dispersion correction           -0.036008868
FINAL SINGLE POINT ENERGY      -112.541379073434
Dispersion correction             ... done (  0.1 sec)
Dispersion correction           -0.036009215
FINAL SINGLE POINT ENERGY      -112.541380255809
Dispersion correction             ... done (  0.1 sec)
                    ***********************HURRAY********************

CARTESIAN COORDINATES (ANGSTROEM)
---------------------------------
  C     -4.465961   -1.154198    1.261422
  C     -3.553371   -0.376229    0.364291
  C     -2.303396   -0.774476    0.147513
  C     -1.267249   -0.110418   -0.701578
  C     -0.247441    0.663204    0.135345
  C      0.792777    1.346075   -0.707328
  C      1.938989    0.782365   -1.074307
  C      2.382028   -0.594365   -0.739100
  O      3.660823   -0.505076   -0.093794
  C      4.228886   -1.663054    0.248623
  O      3.717821   -2.732124    0.049603
  C      5.559898   -1.451063    0.896001
  C      0.440232    2.729094   -1.158082
  C     -4.171753    0.846636   -0.238130
  H     -3.973088   -2.030893    1.675713
  H     -4.816918   -0.535138    2.088701
  H     -5.351657   -1.485964    0.716893
  H     -1.970240   -1.671622    0.661501
  H     -0.737558   -0.870776   -1.279431
  H     -1.722876    0.555963   -1.432555
  H      0.213604   -0.013130    0.854719
  H     -0.778794    1.413297    0.724178
  H      2.624473    1.346785   -1.696929
  H      2.499628   -1.201717   -1.636959
  H      1.692465   -1.117023   -0.082263
  H      5.457002   -0.776142    1.741943
  H      5.959714   -2.405234    1.219619
  H      6.238448   -0.985672    0.184587
  H     -0.513142    2.734427   -1.688199
  H      1.197894    3.147566   -1.816626
  H      0.327741    3.389808   -0.297436
  H     -4.544833    1.504769    0.548285
  H     -5.031247    0.575899   -0.853850
  H     -3.482902    1.418429   -0.852238

 Multiplicity           Mult            ....    1
 Number of Electrons    NEL             ....   80
 Basis Dimension        Dim             ....  282

ORBITAL ENERGIES
----------------

  NO   OCC          E(Eh)            E(eV)
   0   2.0000      -1.238592       -33.7038
   1   2.0000      -1.140031       -31.0218
   2   2.0000      -0.980014       -26.6675
   3   2.0000      -0.957326       -26.0502
   4   2.0000      -0.917671       -24.9711
   5   2.0000      -0.894185       -24.3320
   6   2.0000      -0.863642       -23.5009
   7   2.0000      -0.830434       -22.5973
   8   2.0000      -0.818593       -22.2751
   9   2.0000      -0.785597       -21.3772
  10   2.0000      -0.745620       -20.2894
  11   2.0000      -0.693296       -18.8655
  12   2.0000      -0.656665       -17.8688
  13   2.0000      -0.642629       -17.4868
  14   2.0000      -0.622504       -16.9392
  15   2.0000      -0.610771       -16.6199
  16   2.0000      -0.597171       -16.2498
  17   2.0000      -0.594149       -16.1676
  18   2.0000      -0.572500       -15.5785
  19   2.0000      -0.563807       -15.3420
  20   2.0000      -0.553591       -15.0640
  21   2.0000      -0.549574       -14.9547
  22   2.0000      -0.536198       -14.5907
  23   2.0000      -0.533801       -14.5255
  24   2.0000      -0.521820       -14.1994
  25   2.0000      -0.509920       -13.8756
  26   2.0000      -0.496851       -13.5200
  27   2.0000      -0.491424       -13.3723
  28   2.0000      -0.488462       -13.2917
  29   2.0000      -0.483409       -13.1542
  30   2.0000      -0.479503       -13.0479
  31   2.0000      -0.475119       -12.9287
  32   2.0000      -0.468757       -12.7555
  33   2.0000      -0.448027       -12.1914
  34   2.0000      -0.443348       -12.0641
  35   2.0000      -0.424208       -11.5433
  36   2.0000      -0.414656       -11.2834
  37   2.0000      -0.389342       -10.5945
  38   2.0000      -0.351649        -9.5688
  39   2.0000      -0.332830        -9.0568
  40   0.0000       0.079276         2.1572
  41   0.0000       0.081456         2.2165
  42   0.0000       0.090041         2.4501
  43   0.0000       0.095298         2.5932
  44   0.0000       0.097914         2.6644

MULLIKEN ATOMIC CHARGES
-----------------------
   0 C :   -0.049030
   1 C :   -0.069775
   2 C :   -0.025921
   3 C :   -0.055063
   4 C :   -0.047771
   5 C :   -0.074820
   6 C :    0.038910
   7 C :    0.058803
   8 O :   -0.264953
   9 C :    0.240303
  10 O :   -0.330667
  11 C :   -0.065779
  12 C :   -0.037136
  13 C :   -0.047622
  14 H :    0.026887
  15 H :    0.035042
  16 H :    0.035777
  17 H :    0.012112
  18 H :    0.041834
  19 H :    0.021810
  20 H :    0.039176
  21 H :    0.034222
  22 H :    0.019214
  23 H :    0.058976
  24 H :    0.038226
  25 H :    0.056861
  26 H :    0.055905
  27 H :    0.056337
  28 H :    0.031137
  29 H :    0.028544
  30 H :    0.044653
  31 H :    0.038264
  32 H :    0.042190
  33 H :    0.013354
Sum of atomic charges:    0.0000000

LOEWDIN ATOMIC CHARGES
----------------------
   0 C :   -0.106930
   1 C :   -0.053697
   2 C :   -0.055959
   3 C :   -0.083147
   4 C :   -0.074092
   5 C :   -0.032232
   6 C :   -0.054674
   7 C :   -0.027209
   8 O :   -0.013818
   9 C :   -0.056919
  10 O :   -0.147164
  11 C :   -0.084361
  12 C :   -0.103055
  13 C :   -0.105514
  14 H :    0.049823
  15 H :    0.047778
  16 H :    0.048767
  17 H :    0.038725
  18 H :    0.049872
  19 H :    0.040481
  20 H :    0.047156
  21 H :    0.050967
  22 H :    0.041882
  23 H :    0.055186
  24 H :    0.049770
  25 H :    0.061345
  26 H :    0.061279
  27 H :    0.061639
  28 H :    0.047859
  29 H :    0.050792
  30 H :    0.051465
  31 H :    0.050583
  32 H :    0.051135
  33 H :    0.042267

  Mayer bond orders larger than 0.100000
B(  0-C ,  1-C ) :   1.0309 B(  0-C , 14-H ) :   0.9921 B(  0-C , 15-H ) :   0.9796
B(  0-C , 16-H ) :   0.9798 B(  1-C ,  2-C ) :   1.8903 B(  1-C , 13-C ) :   1.0352
B(  2-C ,  3-C ) :   1.0289 B(  2-C , 17-H ) :   0.9924 B(  3-C ,  4-C ) :   0.9495
B(  3-C , 18-H ) :   0.9888 B(  3-C , 19-H ) :   0.9956 B(  4-C ,  5-C ) :   1.0244
B(  4-C , 20-H ) :   0.9910 B(  4-C , 21-H ) :   0.9891 B(  5-C ,  6-C ) :   1.8809
B(  5-C , 12-C ) :   1.0329 B(  6-C ,  7-C ) :   1.0320 B(  6-C , 22-H ) :   0.9865
B(  7-C ,  8-O ) :   0.8920 B(  7-C , 23-H ) :   0.9918 B(  7-C , 24-H ) :   1.0002
B(  8-O ,  9-C ) :   1.1521 B(  9-C , 10-O ) :   1.9222 B(  9-C , 11-C ) :   1.0410
B( 11-C , 25-H ) :   0.9743 B( 11-C , 26-H ) :   0.9877 B( 11-C , 27-H ) :   0.9723
B( 12-C , 28-H ) :   0.9785 B( 12-C , 29-H ) :   0.9912 B( 12-C , 30-H ) :   0.9772
B( 13-C , 31-H ) :   0.9767 B( 13-C , 32-H ) :   0.9768 B( 13-C , 33-H ) :   0.9922

Dispersion correction           -0.036006803
FINAL SINGLE POINT ENERGY      -112.541381011679

DIPOLE MOMENT
-------------

Method             : SCF
Type of density    : Electron Density
Multiplicity       :   1
Irrep              :   0
Energy             :  -112.5053742088660158 Eh
Relativity type    :
Basis              : AO
                                X                 Y                 Z
Electronic contribution:     13.302357776      -5.136478250      -1.277286924
Nuclear contribution   :    -13.604537420       6.105486598       1.332807248
                        -----------------------------------------
Total Dipole Moment    :     -0.302179645       0.969008348       0.055520324
                        -----------------------------------------
Magnitude (a.u.)       :      1.016549174
Magnitude (Debye)      :      2.583862656

VIBRATIONAL FREQUENCIES
-----------------------

Scaling factor for frequencies =  1.000000000  (already applied!)

     0:       0.00 cm**-1
     1:       0.00 cm**-1
     2:       0.00 cm**-1
     3:       0.00 cm**-1
     4:       0.00 cm**-1
     5:       0.00 cm**-1
     6:      11.48 cm**-1
     7:      20.87 cm**-1
     8:      27.91 cm**-1
     9:      43.28 cm**-1
    10:      47.58 cm**-1
    11:      57.01 cm**-1
    12:      89.94 cm**-1
    13:     105.03 cm**-1
    14:     130.64 cm**-1
    15:     163.52 cm**-1
    16:     185.80 cm**-1
    17:     189.74 cm**-1
    18:     200.68 cm**-1
    19:     249.69 cm**-1
    20:     308.78 cm**-1
    21:     313.10 cm**-1
    22:     320.26 cm**-1
    23:     360.46 cm**-1
    24:     409.89 cm**-1
    25:     428.59 cm**-1
    26:     477.21 cm**-1
    27:     491.36 cm**-1
    28:     542.67 cm**-1
    29:     544.03 cm**-1
    30:     604.32 cm**-1
    31:     626.12 cm**-1
    32:     671.71 cm**-1
    33:     776.21 cm**-1
    34:     824.95 cm**-1
    35:     851.39 cm**-1
    36:     861.02 cm**-1
    37:     893.72 cm**-1
    38:     967.92 cm**-1
    39:     986.03 cm**-1
    40:    1008.49 cm**-1
    41:    1014.09 cm**-1
    42:    1026.36 cm**-1
    43:    1032.68 cm**-1
    44:    1046.37 cm**-1
    45:    1069.23 cm**-1
    46:    1091.29 cm**-1
    47:    1097.30 cm**-1
    48:    1098.09 cm**-1
    49:    1099.23 cm**-1
    50:    1128.99 cm**-1
    51:    1142.96 cm**-1
    52:    1169.86 cm**-1
    53:    1203.76 cm**-1
    54:    1257.04 cm**-1
    55:    1288.68 cm**-1
    56:    1304.38 cm**-1
    57:    1318.84 cm**-1
    58:    1331.26 cm**-1
    59:    1347.98 cm**-1
    60:    1383.89 cm**-1
    61:    1403.87 cm**-1
    62:    1423.10 cm**-1
    63:    1437.64 cm**-1
    64:    1450.25 cm**-1
    65:    1451.06 cm**-1
    66:    1459.40 cm**-1
    67:    1464.94 cm**-1
    68:    1502.06 cm**-1
    69:    1503.24 cm**-1
    70:    1508.74 cm**-1
    71:    1509.19 cm**-1
    72:    1510.95 cm**-1
    73:    1517.89 cm**-1
    74:    1522.23 cm**-1
    75:    1526.31 cm**-1
    76:    1527.88 cm**-1
    77:    1536.81 cm**-1
    78:    1551.16 cm**-1
    79:    1806.59 cm**-1
    80:    1807.83 cm**-1
    81:    1872.43 cm**-1
    82:    3094.79 cm**-1
    83:    3098.91 cm**-1
    84:    3099.72 cm**-1
    85:    3105.79 cm**-1
    86:    3113.26 cm**-1
    87:    3131.51 cm**-1
    88:    3136.98 cm**-1
    89:    3159.61 cm**-1
    90:    3169.45 cm**-1
    91:    3171.11 cm**-1
    92:    3175.90 cm**-1
    93:    3177.75 cm**-1
    94:    3199.79 cm**-1
    95:    3206.83 cm**-1
    96:    3208.80 cm**-1
    97:    3209.88 cm**-1
    98:    3225.27 cm**-1
    99:    3225.78 cm**-1
   100:    3231.70 cm**-1
   101:    3265.53 cm**-1

IR SPECTRUM
-----------

 Mode   freq       eps      Int      T**2         TX        TY        TZ
       cm**-1   L/(mol*cm) km/mol    a.u.
----------------------------------------------------------------------------
  6:     11.48   0.000052    0.26  0.001405  ( 0.014767 -0.010715 -0.032739)
  7:     20.87   0.000074    0.37  0.001101  ( 0.006247 -0.003606 -0.032388)
  8:     27.91   0.000453    2.29  0.005060  (-0.040974  0.010022  0.057277)
  9:     43.28   0.000048    0.24  0.000346  ( 0.002406 -0.000708 -0.018425)
 10:     47.58   0.000040    0.20  0.000262  (-0.005676 -0.002507  0.014966)
 11:     57.01   0.000005    0.03  0.000028  ( 0.001871  0.000943 -0.004813)
 12:     89.94   0.000103    0.52  0.000357  (-0.016463  0.003918 -0.008417)
 13:    105.03   0.000278    1.41  0.000827  ( 0.005230 -0.027144 -0.007916)
 14:    130.64   0.000018    0.09  0.000042  (-0.000529  0.000273  0.006484)
 15:    163.52   0.000626    3.16  0.001195  (-0.015927 -0.001178  0.030658)
 16:    185.80   0.000235    1.19  0.000395  ( 0.000425 -0.003165 -0.019610)
 17:    189.74   0.000237    1.20  0.000389  ( 0.012255 -0.011167  0.010705)
 18:    200.68   0.000090    0.46  0.000141  (-0.011736  0.001621 -0.000456)
 19:    249.69   0.001698    8.58  0.002122  (-0.025623  0.029703 -0.024158)
 20:    308.78   0.000125    0.63  0.000127  (-0.006573  0.005007  0.007634)
 21:    313.10   0.000024    0.12  0.000024  ( 0.001495  0.001227  0.004546)
 22:    320.26   0.000231    1.17  0.000225  (-0.014815 -0.002291  0.000773)
 23:    360.46   0.000710    3.59  0.000615  (-0.009322  0.018544  0.013569)
 24:    409.89   0.000378    1.91  0.000288  ( 0.008200  0.012452  0.008091)
 25:    428.59   0.000777    3.93  0.000566  (-0.016324 -0.003778 -0.016876)
 26:    477.21   0.000463    2.34  0.000303  (-0.011586 -0.003957 -0.012368)
 27:    491.36   0.000497    2.51  0.000315  ( 0.003539  0.012718  0.011882)
 28:    542.67   0.000069    0.35  0.000040  (-0.002755 -0.004198 -0.003797)
 29:    544.03   0.004036   20.40  0.002315  ( 0.045345 -0.015215  0.005248)
 30:    604.32   0.000763    3.85  0.000394  (-0.017087 -0.006024 -0.008095)
 31:    626.12   0.001007    5.09  0.000502  (-0.007229  0.000555  0.021192)
 32:    671.71   0.001098    5.55  0.000510  ( 0.017876  0.001403  0.013737)
 33:    776.21   0.000310    1.57  0.000125  (-0.002485  0.010849  0.000882)
 34:    824.95   0.000554    2.80  0.000209  (-0.012640 -0.002160 -0.006711)
 35:    851.39   0.003640   18.40  0.001334  (-0.022652 -0.009769 -0.026940)
 36:    861.02   0.000520    2.63  0.000188  (-0.003487  0.010248 -0.008440)
 37:    893.72   0.001438    7.27  0.000502  (-0.003569 -0.010995 -0.019193)
 38:    967.92   0.002296   11.60  0.000740  (-0.007219 -0.024943 -0.008117)
 39:    986.03   0.000149    0.75  0.000047  ( 0.003713  0.004651 -0.003442)
 40:   1008.49   0.002898   14.65  0.000897  (-0.023795 -0.008899 -0.015855)
 41:   1014.09   0.000381    1.92  0.000117  (-0.010642 -0.001331 -0.001459)
 42:   1026.36   0.001586    8.01  0.000482  ( 0.006266 -0.019668 -0.007486)
 43:   1032.68   0.000725    3.66  0.000219  (-0.006000 -0.008828 -0.010257)
 44:   1046.37   0.000989    5.00  0.000295  (-0.017002  0.001472 -0.001909)
 45:   1069.23   0.000293    1.48  0.000086  (-0.008103 -0.000519  0.004436)
 46:   1091.29   0.005372   27.15  0.001536  (-0.032832  0.009301 -0.019278)
 47:   1097.30   0.003204   16.19  0.000911  (-0.025935  0.007565  0.013468)
 48:   1098.09   0.002352   11.88  0.000668  (-0.019391  0.004856 -0.016391)
 49:   1099.23   0.019178   96.92  0.005445  (-0.061034  0.033459 -0.024492)
 50:   1128.99   0.000114    0.58  0.000032  ( 0.004598  0.001314  0.002962)
 51:   1142.96   0.005265   26.61  0.001438  (-0.034033  0.015600 -0.005998)
 52:   1169.86   0.001171    5.92  0.000312  (-0.013019 -0.004322  0.011141)
 53:   1203.76   0.000026    0.13  0.000007  ( 0.002378  0.000507  0.000902)
 54:   1257.04   0.001393    7.04  0.000346  ( 0.014886  0.007147 -0.008557)
 55:   1288.68   0.000040    0.20  0.000010  (-0.000352 -0.002670  0.001567)
 56:   1304.38   0.001142    5.77  0.000273  ( 0.012921 -0.007493 -0.007084)
 57:   1318.84   0.017107   86.45  0.004048  ( 0.047087 -0.041852  0.008899)
 58:   1331.26   0.091677  463.30  0.021490  (-0.106367  0.091300 -0.042900)
 59:   1347.98   0.001045    5.28  0.000242  ( 0.014072 -0.006107  0.002556)
 60:   1383.89   0.000619    3.13  0.000140  (-0.006224  0.008376 -0.005536)
 61:   1403.87   0.002054   10.38  0.000456  ( 0.020769  0.003292 -0.003782)
 62:   1423.10   0.002827   14.28  0.000620  ( 0.019323 -0.012598  0.009366)
 63:   1437.64   0.013787   69.67  0.002993  (-0.043680  0.026459 -0.019612)
 64:   1450.25   0.005440   27.49  0.001171  (-0.011910  0.027634 -0.016281)
 65:   1451.06   0.000534    2.70  0.000115  ( 0.003184  0.005073 -0.008887)
 66:   1459.40   0.004350   21.98  0.000930  ( 0.015742 -0.023769  0.010838)
 67:   1464.94   0.013019   65.79  0.002773  (-0.049455  0.011256 -0.014172)
 68:   1502.06   0.000073    0.37  0.000015  ( 0.001129  0.002691  0.002567)
 69:   1503.24   0.004081   20.62  0.000847  (-0.018401 -0.021914 -0.005322)
 70:   1508.74   0.000618    3.12  0.000128  (-0.004845 -0.008852  0.005104)
 71:   1509.19   0.002589   13.08  0.000535  (-0.007172 -0.001423  0.021951)
 72:   1510.95   0.000973    4.92  0.000201  (-0.009249 -0.004409 -0.009797)
 73:   1517.89   0.001039    5.25  0.000214  ( 0.012270 -0.002511 -0.007528)
 74:   1522.23   0.006008   30.36  0.001232  (-0.007515 -0.016676 -0.029951)
 75:   1526.31   0.001121    5.66  0.000229  ( 0.006904 -0.012546  0.004908)
 76:   1527.88   0.000992    5.01  0.000203  ( 0.013399  0.004719  0.000879)
 77:   1536.81   0.000957    4.84  0.000194  ( 0.007867 -0.001693 -0.011385)
 78:   1551.16   0.002275   11.50  0.000458  ( 0.001030 -0.010177  0.018789)
 79:   1806.59   0.004986   25.20  0.000861  ( 0.024050 -0.016576 -0.002835)
 80:   1807.83   0.000546    2.76  0.000094  ( 0.003067 -0.009184 -0.000710)
 81:   1872.43   0.063405  320.42  0.010567  ( 0.019763  0.100359  0.010238)
 82:   3094.79   0.006052   30.59  0.000610  (-0.015385 -0.013471  0.013860)
 83:   3098.91   0.006220   31.43  0.000626  (-0.013255  0.020596 -0.005142)
 84:   3099.72   0.007355   37.17  0.000740  ( 0.025584 -0.008375 -0.003971)
 85:   3105.79   0.000717    3.62  0.000072  (-0.005026  0.006618 -0.001716)
 86:   3113.26   0.008498   42.94  0.000852  (-0.006979  0.007519  0.027323)
 87:   3131.51   0.001763    8.91  0.000176  (-0.007980 -0.007119 -0.007833)
 88:   3136.98   0.000489    2.47  0.000049  (-0.006271 -0.001352 -0.002731)
 89:   3159.61   0.000241    1.22  0.000024  (-0.001827  0.004446  0.000825)
 90:   3169.45   0.000489    2.47  0.000048  (-0.002555 -0.002678 -0.005870)
 91:   3171.11   0.003602   18.20  0.000354  (-0.006068 -0.009408 -0.015138)
 92:   3175.90   0.002598   13.13  0.000255  (-0.007197  0.014190  0.001445)
 93:   3177.75   0.003131   15.82  0.000307  ( 0.013022 -0.002842  0.011394)
 94:   3199.79   0.002217   11.20  0.000216  ( 0.001021 -0.012433  0.007782)
 95:   3206.83   0.000967    4.89  0.000094  ( 0.006071  0.002410 -0.007174)
 96:   3208.80   0.004037   20.40  0.000393  ( 0.008926 -0.016037  0.007466)
 97:   3209.88   0.001756    8.87  0.000171  (-0.011693 -0.001787  0.005551)
 98:   3225.27   0.003852   19.46  0.000373  (-0.012143 -0.009479  0.011635)
 99:   3225.78   0.003409   17.23  0.000330  (-0.009997 -0.010570  0.010868)
100:   3231.70   0.000074    0.37  0.000007  ( 0.000210 -0.000168 -0.002651)
101:   3265.53   0.000270    1.36  0.000026  ( 0.004207 -0.002259  0.001728)

--------------------------
THERMOCHEMISTRY AT 298.15K
--------------------------

Temperature         ...   298.15 K
Pressure            ...     1.00 atm
Total Mass          ...   196.29 AMU
Quasi RRHO          ...     True
Cut-Off Frequency   ...     1.00 cm^-1

Throughout the following assumptions are being made:
  (1) The electronic state is orbitally nondegenerate
  (2) There are no thermally accessible electronically excited states
  (3) Hindered rotations indicated by low frequency modes are not
      treated as such but are treated as vibrations and this may
      cause some error
  (4) All equations used are the standard statistical mechanics
      equations for an ideal gas
  (5) All vibrations are strictly harmonic

freq.      11.48  E(vib)   ...       0.58
freq.      20.87  E(vib)   ...       0.56
freq.      27.91  E(vib)   ...       0.55
freq.      43.28  E(vib)   ...       0.53
freq.      47.58  E(vib)   ...       0.53
freq.      57.01  E(vib)   ...       0.51
freq.      89.94  E(vib)   ...       0.47
freq.     105.03  E(vib)   ...       0.45
freq.     130.64  E(vib)   ...       0.43
freq.     163.52  E(vib)   ...       0.39
freq.     185.80  E(vib)   ...       0.37
freq.     189.74  E(vib)   ...       0.36
freq.     200.68  E(vib)   ...       0.35
freq.     249.69  E(vib)   ...       0.31
freq.     308.78  E(vib)   ...       0.26
freq.     313.10  E(vib)   ...       0.25
freq.     320.26  E(vib)   ...       0.25
freq.     360.46  E(vib)   ...       0.22
freq.     409.89  E(vib)   ...       0.19
freq.     428.59  E(vib)   ...       0.18
freq.     477.21  E(vib)   ...       0.15
freq.     491.36  E(vib)   ...       0.14
freq.     542.67  E(vib)   ...       0.12
freq.     544.03  E(vib)   ...       0.12
freq.     604.32  E(vib)   ...       0.10
freq.     626.12  E(vib)   ...       0.09
freq.     671.71  E(vib)   ...       0.08
freq.     776.21  E(vib)   ...       0.05
freq.     824.95  E(vib)   ...       0.04
freq.     851.39  E(vib)   ...       0.04
freq.     861.02  E(vib)   ...       0.04
freq.     893.72  E(vib)   ...       0.03
freq.     967.92  E(vib)   ...       0.03
freq.     986.03  E(vib)   ...       0.02
freq.    1008.49  E(vib)   ...       0.02
freq.    1014.09  E(vib)   ...       0.02
freq.    1026.36  E(vib)   ...       0.02
freq.    1032.68  E(vib)   ...       0.02
freq.    1046.37  E(vib)   ...       0.02
freq.    1069.23  E(vib)   ...       0.02
freq.    1091.29  E(vib)   ...       0.02
freq.    1097.30  E(vib)   ...       0.02
freq.    1098.09  E(vib)   ...       0.02
freq.    1099.23  E(vib)   ...       0.02
freq.    1128.99  E(vib)   ...       0.01
freq.    1142.96  E(vib)   ...       0.01
freq.    1169.86  E(vib)   ...       0.01
freq.    1203.76  E(vib)   ...       0.01
freq.    1257.04  E(vib)   ...       0.01
freq.    1288.68  E(vib)   ...       0.01
freq.    1304.38  E(vib)   ...       0.01
freq.    1318.84  E(vib)   ...       0.01
freq.    1331.26  E(vib)   ...       0.01
freq.    1347.98  E(vib)   ...       0.01
freq.    1383.89  E(vib)   ...       0.00
freq.    1403.87  E(vib)   ...       0.00
freq.    1423.10  E(vib)   ...       0.00
freq.    1437.64  E(vib)   ...       0.00
freq.    1450.25  E(vib)   ...       0.00
freq.    1451.06  E(vib)   ...       0.00
freq.    1459.40  E(vib)   ...       0.00
freq.    1464.94  E(vib)   ...       0.00
freq.    1502.06  E(vib)   ...       0.00
freq.    1503.24  E(vib)   ...       0.00
freq.    1508.74  E(vib)   ...       0.00
freq.    1509.19  E(vib)   ...       0.00
freq.    1510.95  E(vib)   ...       0.00
freq.    1517.89  E(vib)   ...       0.00
freq.    1522.23  E(vib)   ...       0.00
freq.    1526.31  E(vib)   ...       0.00
freq.    1527.88  E(vib)   ...       0.00
freq.    1536.81  E(vib)   ...       0.00
freq.    1551.16  E(vib)   ...       0.00
freq.    1806.59  E(vib)   ...       0.00
freq.    1807.83  E(vib)   ...       0.00
freq.    1872.43  E(vib)   ...       0.00
freq.    3094.79  E(vib)   ...       0.00
freq.    3098.91  E(vib)   ...       0.00
freq.    3099.72  E(vib)   ...       0.00
freq.    3105.79  E(vib)   ...       0.00
freq.    3113.26  E(vib)   ...       0.00
freq.    3131.51  E(vib)   ...       0.00
freq.    3136.98  E(vib)   ...       0.00
freq.    3159.61  E(vib)   ...       0.00
freq.    3169.45  E(vib)   ...       0.00
freq.    3171.11  E(vib)   ...       0.00
freq.    3175.90  E(vib)   ...       0.00
freq.    3177.75  E(vib)   ...       0.00
freq.    3199.79  E(vib)   ...       0.00
freq.    3206.83  E(vib)   ...       0.00
freq.    3208.80  E(vib)   ...       0.00
freq.    3209.88  E(vib)   ...       0.00
freq.    3225.27  E(vib)   ...       0.00
freq.    3225.78  E(vib)   ...       0.00
freq.    3231.70  E(vib)   ...       0.00
freq.    3265.53  E(vib)   ...       0.00

------------
INNER ENERGY
------------

The inner energy is: U= E(el) + E(ZPE) + E(vib) + E(rot) + E(trans)
    E(el)   - is the total energy from the electronic structure calculation
              = E(kin-el) + E(nuc-el) + E(el-el) + E(nuc-nuc)
    E(ZPE)  - the the zero temperature vibrational energy from the frequency calculation
    E(vib)  - the the finite temperature correction to E(ZPE) due to population
              of excited vibrational states
    E(rot)  - is the rotational thermal energy
    E(trans)- is the translational thermal energy

Summary of contributions to the inner energy U:
Electronic energy                ...   -112.54138101 Eh
Zero point energy                ...      0.30515042 Eh     191.48 kcal/mol
Thermal vibrational correction   ...      0.01458706 Eh       9.15 kcal/mol
Thermal rotational correction    ...      0.00141627 Eh       0.89 kcal/mol
Thermal translational correction ...      0.00141627 Eh       0.89 kcal/mol
-----------------------------------------------------------------------
Total thermal energy                   -112.21881099 Eh

Summary of corrections to the electronic energy:
(perhaps to be used in another calculation)
Total thermal correction                  0.01741960 Eh      10.93 kcal/mol
Non-thermal (ZPE) correction              0.30515042 Eh     191.48 kcal/mol
-----------------------------------------------------------------------
Total correction                          0.32257002 Eh     202.42 kcal/mol

--------
ENTHALPY
--------

The enthalpy is H = U + kB*T
                kB is Boltzmann's constant
Total thermal energy              ...   -112.21881099 Eh
Thermal Enthalpy correction       ...      0.00094421 Eh       0.59 kcal/mol
-----------------------------------------------------------------------
Total Enthalpy                    ...   -112.21786678 Eh

Note: Only C1 symmetry has been detected, increase convergence thresholds
      if your molecule has a higher symmetry. Symmetry factor of 1.0 is

Rotational constants in cm-1:     0.037112     0.007911     0.006791

                             ****ORCA TERMINATED NORMALLY****
TOTAL RUN TIME: 0 days 0 hours 41 minutes 46 seconds 434 msec
