                         Program Version 6.0.1  -  RELEASE   -
|  1> ! wB97X-3c OPT FREQ TightSCF
|  2> %pal
|  3>   nprocs 40
|  4> end
|  5> * xyz 0 1
|  6> C      3.635594     0.130223     1.022232
|  7> C      2.158176    -0.008938     0.778405
|  8> C      1.475310     0.865003    -0.096338
|  9> C      0.099675     0.708904    -0.301824
| 10> C     -0.617948    -0.309169     0.351709
| 11> C      0.068234    -1.173186     1.219193
| 12> C      1.440507    -1.024657     1.430014
| 13> C     -2.109489    -0.482168     0.131954
| 14> C     -2.418069    -0.809646    -1.333850
| 15> C     -2.884063     0.757296     0.595430
| 16> O      2.132368     1.894480    -0.773762
| 17> H      4.007838    -0.636422     1.734804
| 18> H      4.187175     0.007448     0.066500
| 19> H      3.852937     1.131353     1.450296
| 20> H     -0.407900     1.387438    -0.975520
| 21> H     -0.457923    -1.966097     1.736098
| 22> H      1.942492    -1.706700     2.105209
| 23> H     -2.476208    -1.339560     0.739743
| 24> H     -2.152115     0.038873    -1.999286
| 25> H     -1.846975    -1.708290    -1.651316
| 26> H     -3.500949    -1.026354    -1.454858
| 27> H     -2.629502     1.644122    -0.022841
| 28> H     -3.976914     0.574115     0.515704
| 29> H     -2.646250     0.979343     1.657802
| 30> H      3.123998     2.072588    -0.678899
| 31> *
| 32>
| 33>                          ****END OF INPUT****
 Total Charge           Charge          ....    0
 Multiplicity           Mult            ....    1
 Number of Electrons    NEL             ....   60
Dispersion correction           -0.030006756
FINAL SINGLE POINT ENERGY       -81.466592329510
Dispersion correction             ... done (  0.1 sec)
Dispersion correction           -0.030382204
FINAL SINGLE POINT ENERGY       -81.480047153814
Dispersion correction             ... done (  0.1 sec)
Dispersion correction           -0.030463258
FINAL SINGLE POINT ENERGY       -81.481357885135
Dispersion correction             ... done (  0.1 sec)
FINAL SINGLE POINT ENERGY       -81.481658422069
Dispersion correction             ... done (  0.1 sec)
Dispersion correction           -0.030433479
FINAL SINGLE POINT ENERGY       -81.481685729064
Dispersion correction             ... done (  0.1 sec)
Dispersion correction           -0.030431064
FINAL SINGLE POINT ENERGY       -81.481688007703
Dispersion correction             ... done (  0.1 sec)
                    ***********************HURRAY********************

CARTESIAN COORDINATES (ANGSTROEM)
---------------------------------
  C      3.626122    0.163996    0.992113
  C      2.154441   -0.007772    0.776454
  C      1.456248    0.840289   -0.079918
  C      0.098508    0.692433   -0.287501
  C     -0.613076   -0.309463    0.353780
  C      0.072252   -1.159120    1.208324
  C      1.432297   -1.003952    1.410405
  C     -2.096423   -0.471898    0.127440
  C     -2.407814   -0.804391   -1.325269
  C     -2.871268    0.754092    0.590291
  O      2.077642    1.849393   -0.748608
  H      4.002634   -0.583325    1.686271
  H      4.188145    0.051501    0.062706
  H      3.862721    1.142983    1.413911
  H     -0.387293    1.381499   -0.964258
  H     -0.459316   -1.949467    1.721140
  H      1.950725   -1.676849    2.081418
  H     -2.418655   -1.318353    0.738167
  H     -2.127237    0.016225   -1.985763
  H     -1.865348   -1.691641   -1.649063
  H     -3.474127   -0.987415   -1.457922
  H     -2.609484    1.631684   -0.000990
  H     -3.944209    0.592126    0.487128
  H     -2.658522    0.981169    1.634090
  H      3.011036    1.866256   -0.537746

 Multiplicity           Mult            ....    1
 Number of Electrons    NEL             ....   60
 Basis Dimension        Dim             ....  213

ORBITAL ENERGIES
----------------

  NO   OCC          E(Eh)            E(eV)
   0   2.0000      -1.189087       -32.3567
   1   2.0000      -1.004654       -27.3380
   2   2.0000      -0.951489       -25.8913
   3   2.0000      -0.902293       -24.5526
   4   2.0000      -0.877134       -23.8680
   5   2.0000      -0.825795       -22.4710
   6   2.0000      -0.817676       -22.2501
   7   2.0000      -0.745568       -20.2879
   8   2.0000      -0.734768       -19.9940
   9   2.0000      -0.708421       -19.2771
  10   2.0000      -0.636821       -17.3288
  11   2.0000      -0.618502       -16.8303
  12   2.0000      -0.591668       -16.1001
  13   2.0000      -0.560458       -15.2508
  14   2.0000      -0.557539       -15.1714
  15   2.0000      -0.550927       -14.9915
  16   2.0000      -0.537728       -14.6323
  17   2.0000      -0.527319       -14.3491
  18   2.0000      -0.509340       -13.8598
  19   2.0000      -0.508675       -13.8417
  20   2.0000      -0.503777       -13.7085
  21   2.0000      -0.493194       -13.4205
  22   2.0000      -0.480712       -13.0808
  23   2.0000      -0.455300       -12.3893
  24   2.0000      -0.455078       -12.3833
  25   2.0000      -0.435829       -11.8595
  26   2.0000      -0.432271       -11.7627
  27   2.0000      -0.423600       -11.5267
  28   2.0000      -0.335625        -9.1328
  29   2.0000      -0.313577        -8.5329
  30   0.0000       0.072275         1.9667
  31   0.0000       0.076695         2.0870
  32   0.0000       0.087944         2.3931
  33   0.0000       0.091722         2.4959
  34   0.0000       0.101277         2.7559

MULLIKEN ATOMIC CHARGES
-----------------------
   0 C :   -0.101188
   1 C :   -0.098276
   2 C :    0.039810
   3 C :    0.035728
   4 C :   -0.038719
   5 C :   -0.009488
   6 C :    0.021438
   7 C :   -0.109880
   8 C :   -0.035635
   9 C :   -0.034810
  10 O :   -0.214515
  11 H :    0.040021
  12 H :    0.050377
  13 H :    0.050809
  14 H :    0.012296
  15 H :    0.010532
  16 H :    0.009748
  17 H :    0.030141
  18 H :    0.026752
  19 H :    0.039627
  20 H :    0.026224
  21 H :    0.026094
  22 H :    0.026351
  23 H :    0.039298
  24 H :    0.157266
Sum of atomic charges:   -0.0000000

LOEWDIN ATOMIC CHARGES
----------------------
   0 C :   -0.112623
   1 C :   -0.061587
   2 C :   -0.018224
   3 C :   -0.032126
   4 C :   -0.026376
   5 C :   -0.059431
   6 C :   -0.040023
   7 C :   -0.081021
   8 C :   -0.103557
   9 C :   -0.103515
  10 O :   -0.006354
  11 H :    0.056974
  12 H :    0.048837
  13 H :    0.048913
  14 H :    0.047018
  15 H :    0.041193
  16 H :    0.045570
  17 H :    0.049720
  18 H :    0.042463
  19 H :    0.047053
  20 H :    0.043836
  21 H :    0.042379
  22 H :    0.043854
  23 H :    0.047026
  24 H :    0.040003

  Mayer bond orders larger than 0.100000
B(  0-C ,  1-C ) :   1.0167 B(  0-C , 11-H ) :   0.9929 B(  0-C , 12-H ) :   0.9743
B(  0-C , 13-H ) :   0.9743 B(  1-C ,  2-C ) :   1.4274 B(  1-C ,  6-C ) :   1.4562
B(  2-C ,  3-C ) :   1.4494 B(  2-C , 10-O ) :   1.1173 B(  3-C ,  4-C ) :   1.4427
B(  3-C , 14-H ) :   0.9715 B(  4-C ,  5-C ) :   1.4513 B(  4-C ,  7-C ) :   1.0206
B(  5-C ,  6-C ) :   1.4398 B(  5-C , 15-H ) :   0.9835 B(  6-C , 16-H ) :   0.9831
B(  7-C ,  8-C ) :   0.9921 B(  7-C ,  9-C ) :   0.9922 B(  7-C , 17-H ) :   0.9970
B(  8-C , 18-H ) :   0.9900 B(  8-C , 19-H ) :   0.9928 B(  8-C , 20-H ) :   0.9925
B(  9-C , 21-H ) :   0.9901 B(  9-C , 22-H ) :   0.9923 B(  9-C , 23-H ) :   0.9928
B( 10-O , 24-H ) :   1.0373

Dispersion correction           -0.030431245
FINAL SINGLE POINT ENERGY       -81.481688532651

DIPOLE MOMENT
-------------

Method             : SCF
Type of density    : Electron Density
Multiplicity       :   1
Irrep              :   0
Energy             :   -81.4512572876773504 Eh
Relativity type    :
Basis              : AO
                                X                 Y                 Z
Electronic contribution:      6.569158477      -0.207748343       1.760958961
Nuclear contribution   :     -6.121096435      -0.009842425      -1.477229027
                        -----------------------------------------
Total Dipole Moment    :      0.448062042      -0.217590768       0.283729933
                        -----------------------------------------
Magnitude (a.u.)       :      0.573243413
Magnitude (Debye)      :      1.457068961

VIBRATIONAL FREQUENCIES
-----------------------

Scaling factor for frequencies =  1.000000000  (already applied!)

     0:       0.00 cm**-1
     1:       0.00 cm**-1
     2:       0.00 cm**-1
     3:       0.00 cm**-1
     4:       0.00 cm**-1
     5:       0.00 cm**-1
     6:      34.95 cm**-1
     7:      96.06 cm**-1
     8:     169.42 cm**-1
     9:     181.38 cm**-1
    10:     183.73 cm**-1
    11:     233.10 cm**-1
    12:     261.75 cm**-1
    13:     274.90 cm**-1
    14:     295.09 cm**-1
    15:     313.48 cm**-1
    16:     316.44 cm**-1
    17:     390.09 cm**-1
    18:     430.00 cm**-1
    19:     484.39 cm**-1
    20:     504.31 cm**-1
    21:     537.65 cm**-1
    22:     594.93 cm**-1
    23:     676.56 cm**-1
    24:     720.91 cm**-1
    25:     753.92 cm**-1
    26:     792.71 cm**-1
    27:     844.16 cm**-1
    28:     917.60 cm**-1
    29:     918.14 cm**-1
    30:     953.94 cm**-1
    31:     979.69 cm**-1
    32:     981.03 cm**-1
    33:     995.26 cm**-1
    34:    1032.87 cm**-1
    35:    1084.22 cm**-1
    36:    1108.95 cm**-1
    37:    1165.17 cm**-1
    38:    1171.60 cm**-1
    39:    1186.00 cm**-1
    40:    1219.00 cm**-1
    41:    1240.77 cm**-1
    42:    1276.31 cm**-1
    43:    1324.39 cm**-1
    44:    1341.64 cm**-1
    45:    1358.07 cm**-1
    46:    1381.23 cm**-1
    47:    1422.30 cm**-1
    48:    1435.40 cm**-1
    49:    1447.52 cm**-1
    50:    1452.04 cm**-1
    51:    1508.31 cm**-1
    52:    1515.11 cm**-1
    53:    1519.03 cm**-1
    54:    1524.35 cm**-1
    55:    1531.58 cm**-1
    56:    1537.50 cm**-1
    57:    1542.80 cm**-1
    58:    1597.06 cm**-1
    59:    1690.56 cm**-1
    60:    1745.27 cm**-1
    61:    3087.57 cm**-1
    62:    3098.30 cm**-1
    63:    3100.86 cm**-1
    64:    3105.26 cm**-1
    65:    3162.39 cm**-1
    66:    3187.71 cm**-1
    67:    3191.16 cm**-1
    68:    3196.79 cm**-1
    69:    3198.07 cm**-1
    70:    3207.15 cm**-1
    71:    3238.61 cm**-1
    72:    3257.68 cm**-1
    73:    3263.15 cm**-1
    74:    3968.92 cm**-1

IR SPECTRUM
-----------

 Mode   freq       eps      Int      T**2         TX        TY        TZ
       cm**-1   L/(mol*cm) km/mol    a.u.
----------------------------------------------------------------------------
  6:     34.95   0.000069    0.35  0.000617  (-0.004460  0.015317  0.019045)
  7:     96.06   0.000288    1.45  0.000934  ( 0.005660 -0.018941 -0.023309)
  8:    169.42   0.000502    2.54  0.000924  (-0.005571  0.018814  0.023225)
  9:    181.38   0.000190    0.96  0.000327  (-0.004026 -0.014155  0.010504)
 10:    183.73   0.000001    0.00  0.000001  (-0.000308 -0.000520  0.000984)
 11:    233.10   0.000001    0.01  0.000002  (-0.000158  0.000612  0.001144)
 12:    261.75   0.000028    0.14  0.000034  (-0.001913  0.004173 -0.003560)
 13:    274.90   0.000173    0.88  0.000197  ( 0.002589 -0.008643 -0.010740)
 14:    295.09   0.000008    0.04  0.000009  (-0.001445 -0.002137  0.001514)
 15:    313.48   0.018029   91.11  0.017948  ( 0.024977 -0.082559 -0.102507)
 16:    316.44   0.000275    1.39  0.000271  (-0.005932 -0.014031  0.006251)
 17:    390.09   0.001565    7.91  0.001252  (-0.006526  0.021913  0.026997)
 18:    430.00   0.000621    3.14  0.000451  ( 0.010355  0.015599 -0.010016)
 19:    484.39   0.000701    3.54  0.000452  ( 0.003945 -0.013144 -0.016227)
 20:    504.31   0.001247    6.30  0.000772  ( 0.014846  0.019836 -0.012559)
 21:    537.65   0.000093    0.47  0.000054  ( 0.005591  0.004285 -0.002134)
 22:    594.93   0.000004    0.02  0.000002  (-0.000934  0.000807 -0.000847)
 23:    676.56   0.002254   11.39  0.001040  (-0.005926  0.019998  0.024591)
 24:    720.91   0.000037    0.19  0.000016  (-0.000313  0.003052 -0.002592)
 25:    753.92   0.000520    2.63  0.000215  ( 0.002724 -0.009103 -0.011177)
 26:    792.71   0.001808    9.14  0.000712  (-0.016522 -0.018040  0.010650)
 27:    844.16   0.004422   22.35  0.001635  ( 0.007428 -0.025022 -0.030878)
 28:    917.60   0.003525   17.81  0.001199  (-0.005984  0.021988  0.026066)
 29:    918.14   0.001654    8.36  0.000562  (-0.012549 -0.016336  0.011738)
 30:    953.94   0.000201    1.02  0.000066  (-0.001471  0.005074  0.006153)
 31:    979.69   0.003228   16.31  0.001028  ( 0.023146  0.019668 -0.010275)
 32:    981.03   0.000024    0.12  0.000008  ( 0.001003 -0.001145 -0.002285)
 33:    995.26   0.000068    0.34  0.000021  ( 0.000929 -0.002833 -0.003512)
 34:   1032.87   0.005239   26.48  0.001583  (-0.034845 -0.018140  0.006305)
 35:   1084.22   0.000465    2.35  0.000134  ( 0.002109 -0.007153 -0.008837)
 36:   1108.95   0.001103    5.57  0.000310  (-0.015964  0.003422 -0.006610)
 37:   1165.17   0.000370    1.87  0.000099  (-0.004658 -0.007363  0.004806)
 38:   1171.60   0.000189    0.96  0.000050  ( 0.001378 -0.004333 -0.005454)
 39:   1186.00   0.000324    1.64  0.000085  ( 0.006658  0.005677 -0.002962)
 40:   1219.00   0.017107   86.45  0.004379  ( 0.018287  0.051522 -0.037291)
 41:   1240.77   0.004178   21.12  0.001051  ( 0.000609  0.025255 -0.020316)
 42:   1276.31   0.006965   35.20  0.001703  ( 0.006179  0.032423 -0.024773)
 43:   1324.39   0.000244    1.23  0.000057  (-0.005374 -0.004716  0.002516)
 44:   1341.64   0.011278   56.99  0.002623  ( 0.022476  0.038247 -0.025598)
 45:   1358.07   0.016150   81.62  0.003711  ( 0.041759  0.038841 -0.021417)
 46:   1381.23   0.000067    0.34  0.000015  ( 0.000623 -0.002440 -0.002971)
 47:   1422.30   0.001636    8.27  0.000359  ( 0.018529  0.003574  0.001680)
 48:   1435.40   0.002290   11.57  0.000498  (-0.004415  0.013894  0.016889)
 49:   1447.52   0.000669    3.38  0.000144  ( 0.011405 -0.000961  0.003644)
 50:   1452.04   0.001356    6.85  0.000291  (-0.009825  0.009509 -0.010218)
 51:   1508.31   0.004845   24.48  0.001002  (-0.022231 -0.019857  0.010672)
 52:   1515.11   0.000012    0.06  0.000003  (-0.000287  0.001026  0.001187)
 53:   1519.03   0.000781    3.95  0.000160  ( 0.002343 -0.007638 -0.009831)
 54:   1524.35   0.001838    9.29  0.000376  ( 0.003613 -0.011850 -0.014924)
 55:   1531.58   0.003537   17.88  0.000721  ( 0.001962  0.021080 -0.016506)
 56:   1537.50   0.000858    4.34  0.000174  ( 0.010304  0.007437 -0.003569)
 57:   1542.80   0.003401   17.19  0.000688  (-0.000160 -0.020430  0.016447)
 58:   1597.06   0.013313   67.28  0.002601  (-0.037485 -0.030708  0.015913)
 59:   1690.56   0.012681   64.08  0.002341  ( 0.012193  0.037755 -0.027689)
 60:   1745.27   0.005853   29.58  0.001047  ( 0.030610  0.010413 -0.001079)
 61:   3087.57   0.007172   36.25  0.000725  (-0.026251 -0.005714 -0.001765)
 62:   3098.30   0.006061   30.63  0.000610  (-0.004456  0.015245  0.018925)
 63:   3100.86   0.005864   29.63  0.000590  (-0.017710  0.010719 -0.012712)
 64:   3105.26   0.003484   17.61  0.000350  (-0.013634 -0.011309  0.006029)
 65:   3162.39   0.001825    9.22  0.000180  ( 0.002453 -0.008247 -0.010297)
 66:   3187.71   0.000005    0.03  0.000001  ( 0.000373  0.000512  0.000362)
 67:   3191.16   0.009178   46.38  0.000898  ( 0.026435  0.013320 -0.004621)
 68:   3196.79   0.002051   10.36  0.000200  ( 0.002265 -0.008544 -0.011048)
 69:   3198.07   0.004031   20.37  0.000393  ( 0.011082 -0.011603  0.011657)
 70:   3207.15   0.000925    4.67  0.000090  ( 0.003047 -0.006632  0.006061)
 71:   3238.61   0.001532    7.74  0.000148  (-0.011027  0.002310 -0.004546)
 72:   3257.68   0.002661   13.45  0.000255  (-0.001040 -0.012470  0.009917)
 73:   3263.15   0.000393    1.99  0.000038  (-0.002504  0.004027 -0.003888)
 74:   3968.92   0.019431   98.20  0.001528  (-0.037910 -0.009395 -0.001542)

--------------------------
THERMOCHEMISTRY AT 298.15K
--------------------------

Temperature         ...   298.15 K
Pressure            ...     1.00 atm
Total Mass          ...   150.22 AMU
Quasi RRHO          ...     True
Cut-Off Frequency   ...     1.00 cm^-1

Throughout the following assumptions are being made:
  (1) The electronic state is orbitally nondegenerate
  (2) There are no thermally accessible electronically excited states
  (3) Hindered rotations indicated by low frequency modes are not
      treated as such but are treated as vibrations and this may
      cause some error
  (4) All equations used are the standard statistical mechanics
      equations for an ideal gas
  (5) All vibrations are strictly harmonic

freq.      34.95  E(vib)   ...       0.54
freq.      96.06  E(vib)   ...       0.47
freq.     169.42  E(vib)   ...       0.38
freq.     181.38  E(vib)   ...       0.37
freq.     183.73  E(vib)   ...       0.37
freq.     233.10  E(vib)   ...       0.32
freq.     261.75  E(vib)   ...       0.30
freq.     274.90  E(vib)   ...       0.28
freq.     295.09  E(vib)   ...       0.27
freq.     313.48  E(vib)   ...       0.25
freq.     316.44  E(vib)   ...       0.25
freq.     390.09  E(vib)   ...       0.20
freq.     430.00  E(vib)   ...       0.18
freq.     484.39  E(vib)   ...       0.15
freq.     504.31  E(vib)   ...       0.14
freq.     537.65  E(vib)   ...       0.12
freq.     594.93  E(vib)   ...       0.10
freq.     676.56  E(vib)   ...       0.08
freq.     720.91  E(vib)   ...       0.07
freq.     753.92  E(vib)   ...       0.06
freq.     792.71  E(vib)   ...       0.05
freq.     844.16  E(vib)   ...       0.04
freq.     917.60  E(vib)   ...       0.03
freq.     918.14  E(vib)   ...       0.03
freq.     953.94  E(vib)   ...       0.03
freq.     979.69  E(vib)   ...       0.03
freq.     981.03  E(vib)   ...       0.02
freq.     995.26  E(vib)   ...       0.02
freq.    1032.87  E(vib)   ...       0.02
freq.    1084.22  E(vib)   ...       0.02
freq.    1108.95  E(vib)   ...       0.02
freq.    1165.17  E(vib)   ...       0.01
freq.    1171.60  E(vib)   ...       0.01
freq.    1186.00  E(vib)   ...       0.01
freq.    1219.00  E(vib)   ...       0.01
freq.    1240.77  E(vib)   ...       0.01
freq.    1276.31  E(vib)   ...       0.01
freq.    1324.39  E(vib)   ...       0.01
freq.    1341.64  E(vib)   ...       0.01
freq.    1358.07  E(vib)   ...       0.01
freq.    1381.23  E(vib)   ...       0.01
freq.    1422.30  E(vib)   ...       0.00
freq.    1435.40  E(vib)   ...       0.00
freq.    1447.52  E(vib)   ...       0.00
freq.    1452.04  E(vib)   ...       0.00
freq.    1508.31  E(vib)   ...       0.00
freq.    1515.11  E(vib)   ...       0.00
freq.    1519.03  E(vib)   ...       0.00
freq.    1524.35  E(vib)   ...       0.00
freq.    1531.58  E(vib)   ...       0.00
freq.    1537.50  E(vib)   ...       0.00
freq.    1542.80  E(vib)   ...       0.00
freq.    1597.06  E(vib)   ...       0.00
freq.    1690.56  E(vib)   ...       0.00
freq.    1745.27  E(vib)   ...       0.00
freq.    3087.57  E(vib)   ...       0.00
freq.    3098.30  E(vib)   ...       0.00
freq.    3100.86  E(vib)   ...       0.00
freq.    3105.26  E(vib)   ...       0.00
freq.    3162.39  E(vib)   ...       0.00
freq.    3187.71  E(vib)   ...       0.00
freq.    3191.16  E(vib)   ...       0.00
freq.    3196.79  E(vib)   ...       0.00
freq.    3198.07  E(vib)   ...       0.00
freq.    3207.15  E(vib)   ...       0.00
freq.    3238.61  E(vib)   ...       0.00
freq.    3257.68  E(vib)   ...       0.00
freq.    3263.15  E(vib)   ...       0.00
freq.    3968.92  E(vib)   ...       0.00

------------
INNER ENERGY
------------

The inner energy is: U= E(el) + E(ZPE) + E(vib) + E(rot) + E(trans)
    E(el)   - is the total energy from the electronic structure calculation
              = E(kin-el) + E(nuc-el) + E(el-el) + E(nuc-nuc)
    E(ZPE)  - the the zero temperature vibrational energy from the frequency calculation
    E(vib)  - the the finite temperature correction to E(ZPE) due to population
              of excited vibrational states
    E(rot)  - is the rotational thermal energy
    E(trans)- is the translational thermal energy

Summary of contributions to the inner energy U:
Electronic energy                ...    -81.48168853 Eh
Zero point energy                ...      0.22202622 Eh     139.32 kcal/mol
Thermal vibrational correction   ...      0.00848749 Eh       5.33 kcal/mol
Thermal rotational correction    ...      0.00141627 Eh       0.89 kcal/mol
Thermal translational correction ...      0.00141627 Eh       0.89 kcal/mol
-----------------------------------------------------------------------
Total thermal energy                    -81.24834227 Eh

Summary of corrections to the electronic energy:
(perhaps to be used in another calculation)
Total thermal correction                  0.01132004 Eh       7.10 kcal/mol
Non-thermal (ZPE) correction              0.22202622 Eh     139.32 kcal/mol
-----------------------------------------------------------------------
Total correction                          0.23334626 Eh     146.43 kcal/mol

--------
ENTHALPY
--------

The enthalpy is H = U + kB*T
                kB is Boltzmann's constant
Total thermal energy              ...    -81.24834227 Eh
Thermal Enthalpy correction       ...      0.00094421 Eh       0.59 kcal/mol
-----------------------------------------------------------------------
Total Enthalpy                    ...    -81.24739807 Eh

Note: Only C1 symmetry has been detected, increase convergence thresholds
      if your molecule has a higher symmetry. Symmetry factor of 1.0 is
      used for the rotational entropy correction.

Note: Rotational entropy computed according to Herzberg
Infrared and Raman Spectra, Chapter V,1, Van Nostrand Reinhold, 1945
Point Group:  C1, Symmetry Number:   1
Rotational constants in cm-1:     0.072986     0.022682     0.019531

Vibrational entropy computed according to the QRRHO of S. Grimme
Chem.Eur.J. 2012 18 9955 using a reference frequency of 100.0 cm-1

-------
ENTROPY
-------

The entropy contributions are T*S = T*(S(el)+S(vib)+S(rot)+S(trans))
     S(el)   - electronic entropy
     S(vib)  - vibrational entropy
     S(rot)  - rotational entropy
     S(trans)- translational entropy
The entropies will be listed as multiplied by the temperature to get
units of energy

Electronic entropy                ...      0.00000000 Eh      0.00 kcal/mol
Vibrational entropy               ...      0.01435326 Eh      9.01 kcal/mol
Rotational entropy                ...      0.01439197 Eh      9.03 kcal/mol

                             ****ORCA TERMINATED NORMALLY****
TOTAL RUN TIME: 0 days 0 hours 8 minutes 21 seconds 840 msec
