                         Program Version 6.0.1  -  RELEASE   -
|  1> ! wB97X-3c OPT FREQ TightSCF
|  2> %pal
|  3>   nprocs 40
|  4> end
|  5> * xyz 0 1
|  6> C     -3.675661     0.106195    -0.434383
|  7> C     -2.145946     0.012067    -0.431242
|  8> C     -1.517069     1.317189     0.099806
|  9> C      0.033038     1.276765     0.159248
| 10> C      0.654230    -0.120480    -0.107369
| 11> C     -0.185158    -1.161279     0.618954
| 12> O      0.315966    -1.948279     1.408257
| 13> C     -1.676780    -1.187034     0.414229
| 14> C      2.176504    -0.193205     0.248925
| 15> C      2.818876    -1.470678    -0.325538
| 16> C      2.964393     1.022409    -0.273572
| 17> H     -4.114376    -0.832335    -0.835451
| 18> H     -4.062757     0.272444     0.593948
| 19> H     -4.004868     0.947302    -1.081081
| 20> H     -1.818400    -0.138662    -1.484337
| 21> H     -1.909206     1.517325     1.122074
| 22> H     -1.835674     2.167009    -0.543388
| 23> H      0.356771     1.637078     1.160864
| 24> H      0.424770     1.994096    -0.594453
| 25> H      0.557745    -0.319075    -1.198326
| 26> H     -2.167866    -1.154834     1.411938
| 27> H     -1.961027    -2.137309    -0.087001
| 28> H      2.289744    -0.211442     1.355808
| 29> H      2.322968    -2.386040     0.052999
| 30> H      3.888134    -1.529174    -0.029326
| 31> H      2.758115    -1.472044    -1.435198
| 32> H      4.053013     0.885853    -0.097567
| 33> H      2.666102     1.946490     0.263836
| 34> H      2.794421     1.159648    -1.363133
| 35> *
| 36>
| 37>                          ****END OF INPUT****
 Total Charge           Charge          ....    0
 Multiplicity           Mult            ....    1
 Number of Electrons    NEL             ....   64
Dispersion correction           -0.033382067
FINAL SINGLE POINT ENERGY       -83.911459200411
Dispersion correction             ... done (  0.1 sec)
Dispersion correction           -0.033924246
FINAL SINGLE POINT ENERGY       -83.920471643511
Dispersion correction             ... done (  0.1 sec)
Dispersion correction           -0.033996470
FINAL SINGLE POINT ENERGY       -83.921305765939
Dispersion correction             ... done (  0.1 sec)
FINAL SINGLE POINT ENERGY       -83.921519379658
FINAL SINGLE POINT ENERGY       -83.921694568900
FINAL SINGLE POINT ENERGY       -83.921832259559
FINAL SINGLE POINT ENERGY       -83.922202027618
FINAL SINGLE POINT ENERGY       -83.922290966434
Dispersion correction             ... done (  0.1 sec)
Dispersion correction           -0.034088796
FINAL SINGLE POINT ENERGY       -83.922325849724
Dispersion correction             ... done (  0.1 sec)
Dispersion correction           -0.034090163
FINAL SINGLE POINT ENERGY       -83.922332098315
Dispersion correction             ... done (  0.1 sec)
                    ***********************HURRAY********************

CARTESIAN COORDINATES (ANGSTROEM)
---------------------------------
  C     -3.619645    0.126412   -0.469141
  C     -2.104456    0.073828   -0.445419
  C     -1.494646    1.264142    0.279543
  C      0.030315    1.298072    0.146926
  C      0.659989   -0.090625   -0.071170
  C     -0.174045   -1.082180    0.705358
  O      0.235201   -1.707913    1.651752
  C     -1.604902   -1.195462    0.239842
  C      2.150512   -0.160125    0.242946
  C      2.738111   -1.491909   -0.198555
  C      2.919073    0.981501   -0.405185
  H     -4.038905   -0.753894   -0.956398
  H     -4.020691    0.167663    0.544709
  H     -3.974363    1.006608   -1.004776
  H     -1.750453    0.084008   -1.480785
  H     -1.776419    1.194867    1.334319
  H     -1.920283    2.198204   -0.088569
  H      0.465553    1.745536    1.041700
  H      0.312191    1.937211   -0.688805
  H      0.517982   -0.347561   -1.127891
  H     -2.210983   -1.431874    1.115403
  H     -1.667263   -2.059028   -0.427020
  H      2.256492   -0.083743    1.328063
  H      2.234616   -2.330605    0.275459
  H      3.795222   -1.549586    0.059725
  H      2.659051   -1.606046   -1.281853
  H      3.985330    0.880281   -0.204551
  H      2.608897    1.957336   -0.036544
  H      2.788522    0.974888   -1.489565

 Multiplicity           Mult            ....    1
 Number of Electrons    NEL             ....   64
 Basis Dimension        Dim             ....  233

ORBITAL ENERGIES
----------------

  NO   OCC          E(Eh)            E(eV)
   0   2.0000      -1.168340       -31.7922
   1   2.0000      -0.995530       -27.0897
   2   2.0000      -0.953971       -25.9589
   3   2.0000      -0.895216       -24.3601
   4   2.0000      -0.868785       -23.6408
   5   2.0000      -0.823590       -22.4110
   6   2.0000      -0.816397       -22.2153
   7   2.0000      -0.750921       -20.4336
   8   2.0000      -0.711436       -19.3592
   9   2.0000      -0.703139       -19.1334
  10   2.0000      -0.641216       -17.4484
  11   2.0000      -0.620983       -16.8978
  12   2.0000      -0.594588       -16.1796
  13   2.0000      -0.580332       -15.7916
  14   2.0000      -0.561284       -15.2733
  15   2.0000      -0.549676       -14.9574
  16   2.0000      -0.534890       -14.5551
  17   2.0000      -0.528648       -14.3852
  18   2.0000      -0.523494       -14.2450
  19   2.0000      -0.510780       -13.8990
  20   2.0000      -0.506010       -13.7692
  21   2.0000      -0.492573       -13.4036
  22   2.0000      -0.481440       -13.1007
  23   2.0000      -0.471608       -12.8331
  24   2.0000      -0.465294       -12.6613
  25   2.0000      -0.454300       -12.3621
  26   2.0000      -0.444273       -12.0893
  27   2.0000      -0.433520       -11.7967
  28   2.0000      -0.428894       -11.6708
  29   2.0000      -0.415952       -11.3186
  30   2.0000      -0.413869       -11.2619
  31   2.0000      -0.346684        -9.4337
  32   0.0000       0.061347         1.6693
  33   0.0000       0.089710         2.4411
  34   0.0000       0.092277         2.5110
  35   0.0000       0.097940         2.6651
  36   0.0000       0.103851         2.8259

MULLIKEN ATOMIC CHARGES
-----------------------
   0 C :   -0.044695
   1 C :   -0.099819
   2 C :   -0.035510
   3 C :   -0.034363
   4 C :   -0.125819
   5 C :    0.192510
   6 O :   -0.303045
   7 C :   -0.039897
   8 C :   -0.075044
   9 C :   -0.044761
  10 C :   -0.040611
  11 H :    0.031147
  12 H :    0.028173
  13 H :    0.029588
  14 H :    0.033853
  15 H :    0.039206
  16 H :    0.033352
  17 H :    0.042481
  18 H :    0.041037
  19 H :    0.046762
  20 H :    0.048633
  21 H :    0.058971
  22 H :    0.046667
  23 H :    0.048619
  24 H :    0.027729
  25 H :    0.018165
  26 H :    0.030701
  27 H :    0.023768
  28 H :    0.022202
Sum of atomic charges:    0.0000000

LOEWDIN ATOMIC CHARGES
----------------------
   0 C :   -0.106407
   1 C :   -0.080429
   2 C :   -0.074739
   3 C :   -0.063093
   4 C :   -0.064928
   5 C :    0.012097
   6 O :   -0.122950
   7 C :   -0.064296
   8 C :   -0.072226
   9 C :   -0.104870
  10 C :   -0.108691
  11 H :    0.046342
  12 H :    0.044927
  13 H :    0.045485
  14 H :    0.043679
  15 H :    0.047292
  16 H :    0.047227
  17 H :    0.049438
  18 H :    0.046132
  19 H :    0.053040
  20 H :    0.059253
  21 H :    0.058669
  22 H :    0.050233
  23 H :    0.046098
  24 H :    0.044764
  25 H :    0.038465
  26 H :    0.046600
  27 H :    0.041149
  28 H :    0.041738

  Mayer bond orders larger than 0.100000
B(  0-C ,  1-C ) :   1.0218 B(  0-C , 11-H ) :   0.9910 B(  0-C , 12-H ) :   0.9896
B(  0-C , 13-H ) :   0.9923 B(  1-C ,  2-C ) :   0.9694 B(  1-C ,  7-C ) :   0.9673
B(  1-C , 14-H ) :   0.9918 B(  2-C ,  3-C ) :   1.0015 B(  2-C , 15-H ) :   0.9902
B(  2-C , 16-H ) :   1.0008 B(  3-C ,  4-C ) :   0.9666 B(  3-C , 17-H ) :   0.9928
B(  3-C , 18-H ) :   0.9965 B(  4-C ,  5-C ) :   1.0043 B(  4-C ,  8-C ) :   0.9871
B(  4-C , 19-H ) :   0.9707 B(  5-C ,  6-O ) :   1.9383 B(  5-C ,  7-C ) :   1.0225
B(  7-C , 20-H ) :   0.9798 B(  7-C , 21-H ) :   0.9723 B(  8-C ,  9-C ) :   0.9978
B(  8-C , 10-C ) :   1.0000 B(  8-C , 22-H ) :   0.9850 B(  9-C , 23-H ) :   0.9924
B(  9-C , 24-H ) :   0.9947 B(  9-C , 25-H ) :   0.9899 B( 10-C , 26-H ) :   0.9949
B( 10-C , 27-H ) :   0.9945 B( 10-C , 28-H ) :   0.9891

Dispersion correction           -0.034089692
FINAL SINGLE POINT ENERGY       -83.922332675615

DIPOLE MOMENT
-------------

Method             : SCF
Type of density    : Electron Density
Multiplicity       :   1
Irrep              :   0
Energy             :   -83.8882429839378432 Eh
Relativity type    :
Basis              : AO
                                X                 Y                 Z
Electronic contribution:     -1.389143598      -4.033933103       4.536764082
Nuclear contribution   :      0.935811901       4.754284215      -5.432516583
                        -----------------------------------------
Total Dipole Moment    :     -0.453331697       0.720351112      -0.895752501
                        -----------------------------------------
Magnitude (a.u.)       :      1.235632589
Magnitude (Debye)      :      3.140728444

VIBRATIONAL FREQUENCIES
-----------------------

Scaling factor for frequencies =  1.000000000  (already applied!)

     0:       0.00 cm**-1
     1:       0.00 cm**-1
     2:       0.00 cm**-1
     3:       0.00 cm**-1
     4:       0.00 cm**-1
     5:       0.00 cm**-1
     6:      69.88 cm**-1
     7:      89.01 cm**-1
     8:     100.50 cm**-1
     9:     174.27 cm**-1
    10:     192.97 cm**-1
    11:     224.52 cm**-1
    12:     235.60 cm**-1
    13:     246.49 cm**-1
    14:     274.01 cm**-1
    15:     295.53 cm**-1
    16:     321.04 cm**-1
    17:     384.46 cm**-1
    18:     409.47 cm**-1
    19:     432.39 cm**-1
    20:     462.29 cm**-1
    21:     487.80 cm**-1
    22:     541.87 cm**-1
    23:     617.04 cm**-1
    24:     669.55 cm**-1
    25:     764.36 cm**-1
    26:     860.70 cm**-1
    27:     888.15 cm**-1
    28:     899.50 cm**-1
    29:     915.40 cm**-1
    30:     953.34 cm**-1
    31:     969.92 cm**-1
    32:     988.65 cm**-1
    33:     994.80 cm**-1
    34:    1031.03 cm**-1
    35:    1039.81 cm**-1
    36:    1080.40 cm**-1
    37:    1129.90 cm**-1
    38:    1142.26 cm**-1
    39:    1147.21 cm**-1
    40:    1190.39 cm**-1
    41:    1192.22 cm**-1
    42:    1211.08 cm**-1
    43:    1230.40 cm**-1
    44:    1242.27 cm**-1
    45:    1288.45 cm**-1
    46:    1310.89 cm**-1
    47:    1332.43 cm**-1
    48:    1339.01 cm**-1
    49:    1353.68 cm**-1
    50:    1370.27 cm**-1
    51:    1382.86 cm**-1
    52:    1394.86 cm**-1
    53:    1417.49 cm**-1
    54:    1437.49 cm**-1
    55:    1438.59 cm**-1
    56:    1448.54 cm**-1
    57:    1453.40 cm**-1
    58:    1462.83 cm**-1
    59:    1485.74 cm**-1
    60:    1515.80 cm**-1
    61:    1516.98 cm**-1
    62:    1526.63 cm**-1
    63:    1527.49 cm**-1
    64:    1530.29 cm**-1
    65:    1535.48 cm**-1
    66:    1541.06 cm**-1
    67:    1549.37 cm**-1
    68:    1865.77 cm**-1
    69:    3064.69 cm**-1
    70:    3082.76 cm**-1
    71:    3091.72 cm**-1
    72:    3092.45 cm**-1
    73:    3094.59 cm**-1
    74:    3096.61 cm**-1
    75:    3106.93 cm**-1
    76:    3111.09 cm**-1
    77:    3113.44 cm**-1
    78:    3150.10 cm**-1
    79:    3170.09 cm**-1
    80:    3174.09 cm**-1
    81:    3175.97 cm**-1
    82:    3180.56 cm**-1
    83:    3184.31 cm**-1
    84:    3190.01 cm**-1
    85:    3198.77 cm**-1
    86:    3217.39 cm**-1

IR SPECTRUM
-----------

 Mode   freq       eps      Int      T**2         TX        TY        TZ
       cm**-1   L/(mol*cm) km/mol    a.u.
----------------------------------------------------------------------------
  6:     69.88   0.000068    0.34  0.000302  ( 0.013282 -0.004964 -0.010028)
  7:     89.01   0.000243    1.23  0.000851  (-0.012304  0.015568  0.021378)
  8:    100.50   0.000463    2.34  0.001437  ( 0.008857 -0.029186 -0.022516)
  9:    174.27   0.000167    0.84  0.000299  (-0.012712  0.001522  0.011639)
 10:    192.97   0.000293    1.48  0.000474  ( 0.017182  0.002859 -0.013079)
 11:    224.52   0.000076    0.38  0.000106  (-0.007096 -0.007230  0.001700)
 12:    235.60   0.000163    0.82  0.000216  (-0.006157 -0.013349 -0.000178)
 13:    246.49   0.000001    0.01  0.000002  ( 0.000789 -0.000050 -0.001104)
 14:    274.01   0.000421    2.13  0.000479  (-0.016246 -0.012561  0.007598)
 15:    295.53   0.000266    1.34  0.000281  (-0.015220 -0.005521  0.004340)
 16:    321.04   0.000122    0.62  0.000118  ( 0.010552  0.002626  0.000275)
 17:    384.46   0.000358    1.81  0.000291  ( 0.016698  0.001347  0.003196)
 18:    409.47   0.000097    0.49  0.000074  (-0.001262  0.000580 -0.008501)
 19:    432.39   0.000128    0.65  0.000092  ( 0.005715  0.007447 -0.002081)
 20:    462.29   0.000172    0.87  0.000116  ( 0.003607 -0.008476 -0.005566)
 21:    487.80   0.000332    1.68  0.000212  ( 0.013529 -0.004522  0.002971)
 22:    541.87   0.000627    3.17  0.000361  (-0.014896 -0.004120  0.011055)
 23:    617.04   0.001692    8.55  0.000856  (-0.025211 -0.014157  0.004443)
 24:    669.55   0.000253    1.28  0.000118  ( 0.008498  0.004880 -0.004683)
 25:    764.36   0.000267    1.35  0.000109  ( 0.005948  0.007754 -0.003647)
 26:    860.70   0.000030    0.15  0.000011  ( 0.000761 -0.001453 -0.002885)
 27:    888.15   0.000096    0.48  0.000034  (-0.003009 -0.000621 -0.004911)
 28:    899.50   0.000169    0.86  0.000059  (-0.001641  0.004387  0.006065)
 29:    915.40   0.000863    4.36  0.000294  ( 0.008558 -0.000620  0.014851)
 30:    953.34   0.000371    1.88  0.000122  ( 0.003079  0.009521 -0.004628)
 31:    969.92   0.001003    5.07  0.000323  ( 0.016454 -0.000012  0.007216)
 32:    988.65   0.000512    2.59  0.000162  (-0.012672  0.000044 -0.001025)
 33:    994.80   0.000070    0.35  0.000022  (-0.002397  0.004021 -0.000231)
 34:   1031.03   0.001427    7.21  0.000432  (-0.019642  0.005935  0.003297)
 35:   1039.81   0.000483    2.44  0.000145  ( 0.010537  0.005345  0.002317)
 36:   1080.40   0.001795    9.07  0.000519  (-0.021901 -0.006203  0.000655)
 37:   1129.90   0.001102    5.57  0.000304  (-0.015658 -0.006422 -0.004238)
 38:   1142.26   0.000109    0.55  0.000030  (-0.000729  0.004791  0.002482)
 39:   1147.21   0.000214    1.08  0.000058  (-0.003878  0.005363 -0.003804)
 40:   1190.39   0.000335    1.69  0.000088  (-0.005718 -0.007046  0.002346)
 41:   1192.22   0.000104    0.53  0.000027  (-0.004718 -0.002236 -0.000025)
 42:   1211.08   0.000983    4.97  0.000253  ( 0.015736  0.000132 -0.002404)
 43:   1230.40   0.000096    0.48  0.000024  (-0.000690 -0.004791 -0.000900)
 44:   1242.27   0.007264   36.71  0.001825  (-0.040412 -0.013333  0.003702)
 45:   1288.45   0.000513    2.59  0.000124  ( 0.000406 -0.011111  0.000848)
 46:   1310.89   0.000528    2.67  0.000126  (-0.009056  0.001220 -0.006495)
 47:   1332.43   0.000052    0.26  0.000012  ( 0.002490 -0.000840 -0.002309)
 48:   1339.01   0.001603    8.10  0.000374  (-0.017420 -0.005269 -0.006516)
 49:   1353.68   0.003083   15.58  0.000711  (-0.021549 -0.014687  0.005533)
 50:   1370.27   0.000168    0.85  0.000038  ( 0.003259  0.004638 -0.002462)
 51:   1382.86   0.000345    1.74  0.000078  (-0.002130 -0.007920  0.003251)
 52:   1394.86   0.000195    0.98  0.000044  ( 0.001637  0.000140  0.006389)
 53:   1417.49   0.000124    0.63  0.000027  ( 0.001054 -0.005091  0.000469)
 54:   1437.49   0.001455    7.35  0.000316  ( 0.006859 -0.015750 -0.004565)
 55:   1438.59   0.001547    7.82  0.000336  (-0.002239  0.018153 -0.001027)
 56:   1448.54   0.000615    3.11  0.000133  ( 0.010673 -0.004305  0.000346)
 57:   1453.40   0.002002   10.12  0.000430  (-0.014238  0.002805  0.014807)
 58:   1462.83   0.008187   41.38  0.001747  (-0.037381 -0.017537  0.006458)
 59:   1485.74   0.001200    6.06  0.000252  (-0.006958 -0.014258  0.000545)
 60:   1515.80   0.000371    1.87  0.000076  ( 0.002251 -0.008196  0.002024)
 61:   1516.98   0.001606    8.11  0.000330  ( 0.015586  0.009158 -0.001882)
 62:   1526.63   0.000111    0.56  0.000023  ( 0.001344  0.004401  0.001265)
 63:   1527.49   0.002299   11.62  0.000470  (-0.001252 -0.007250  0.020386)
 64:   1530.29   0.001779    8.99  0.000363  ( 0.004667 -0.016649 -0.007986)
 65:   1535.48   0.001252    6.33  0.000254  (-0.002488  0.004559  0.015081)
 66:   1541.06   0.001446    7.31  0.000293  ( 0.007561  0.006955  0.013681)
 67:   1549.37   0.002847   14.39  0.000573  (-0.014091  0.004006 -0.018944)
 68:   1865.77   0.042941  217.01  0.007182  ( 0.033509 -0.048291  0.061051)
 69:   3064.69   0.001784    9.01  0.000182  ( 0.009194  0.006020  0.007802)
 70:   3082.76   0.000950    4.80  0.000096  ( 0.001778 -0.005508  0.007918)
 71:   3091.72   0.006158   31.12  0.000622  ( 0.011745 -0.007422 -0.020701)
 72:   3092.45   0.004872   24.62  0.000492  ( 0.006873  0.019962 -0.006777)
 73:   3094.59   0.009025   45.61  0.000910  (-0.029883  0.003485  0.002239)
 74:   3096.61   0.006694   33.83  0.000675  ( 0.018130 -0.008092 -0.016745)
 75:   3106.93   0.002313   11.69  0.000232  (-0.004657 -0.014485  0.000884)
 76:   3111.09   0.002479   12.53  0.000249  ( 0.003657 -0.002910 -0.015061)
 77:   3113.44   0.005455   27.57  0.000547  ( 0.010103  0.019992  0.006713)
 78:   3150.10   0.002972   15.02  0.000294  (-0.005031  0.016112 -0.003084)
 79:   3170.09   0.000730    3.69  0.000072  (-0.006776  0.002842  0.004231)
 80:   3174.09   0.004026   20.35  0.000396  ( 0.001344  0.007637 -0.018323)
 81:   3175.97   0.000282    1.43  0.000028  (-0.000500 -0.004456 -0.002763)
 82:   3180.56   0.009585   48.44  0.000940  ( 0.020865  0.001630  0.022414)
 83:   3184.31   0.004876   24.64  0.000478  (-0.002352 -0.003101 -0.021510)
 84:   3190.01   0.003517   17.77  0.000344  ( 0.000091 -0.017708  0.005521)
 85:   3198.77   0.003970   20.06  0.000387  ( 0.011072 -0.015017 -0.006261)
 86:   3217.39   0.001365    6.90  0.000132  ( 0.007732  0.007325 -0.004353)

--------------------------
THERMOCHEMISTRY AT 298.15K
--------------------------

Temperature         ...   298.15 K
Pressure            ...     1.00 atm
Total Mass          ...   154.25 AMU
Quasi RRHO          ...     True
Cut-Off Frequency   ...     1.00 cm^-1

Throughout the following assumptions are being made:
  (1) The electronic state is orbitally nondegenerate
  (2) There are no thermally accessible electronically excited states
  (3) Hindered rotations indicated by low frequency modes are not
      treated as such but are treated as vibrations and this may
      cause some error
  (4) All equations used are the standard statistical mechanics
      equations for an ideal gas
  (5) All vibrations are strictly harmonic

freq.      69.88  E(vib)   ...       0.50
freq.      89.01  E(vib)   ...       0.47
freq.     100.50  E(vib)   ...       0.46
freq.     174.27  E(vib)   ...       0.38
freq.     192.97  E(vib)   ...       0.36
freq.     224.52  E(vib)   ...       0.33
freq.     235.60  E(vib)   ...       0.32
freq.     246.49  E(vib)   ...       0.31
freq.     274.01  E(vib)   ...       0.28
freq.     295.53  E(vib)   ...       0.27
freq.     321.04  E(vib)   ...       0.25
freq.     384.46  E(vib)   ...       0.20
freq.     409.47  E(vib)   ...       0.19
freq.     432.39  E(vib)   ...       0.18
freq.     462.29  E(vib)   ...       0.16
freq.     487.80  E(vib)   ...       0.15
freq.     541.87  E(vib)   ...       0.12
freq.     617.04  E(vib)   ...       0.09
freq.     669.55  E(vib)   ...       0.08
freq.     764.36  E(vib)   ...       0.06
freq.     860.70  E(vib)   ...       0.04
freq.     888.15  E(vib)   ...       0.04
freq.     899.50  E(vib)   ...       0.03
freq.     915.40  E(vib)   ...       0.03
freq.     953.34  E(vib)   ...       0.03
freq.     969.92  E(vib)   ...       0.03
freq.     988.65  E(vib)   ...       0.02
freq.     994.80  E(vib)   ...       0.02
freq.    1031.03  E(vib)   ...       0.02
freq.    1039.81  E(vib)   ...       0.02
freq.    1080.40  E(vib)   ...       0.02
freq.    1129.90  E(vib)   ...       0.01
freq.    1142.26  E(vib)   ...       0.01
freq.    1147.21  E(vib)   ...       0.01
freq.    1190.39  E(vib)   ...       0.01
freq.    1192.22  E(vib)   ...       0.01
freq.    1211.08  E(vib)   ...       0.01
freq.    1230.40  E(vib)   ...       0.01
freq.    1242.27  E(vib)   ...       0.01
freq.    1288.45  E(vib)   ...       0.01
freq.    1310.89  E(vib)   ...       0.01
freq.    1332.43  E(vib)   ...       0.01
freq.    1339.01  E(vib)   ...       0.01
freq.    1353.68  E(vib)   ...       0.01
freq.    1370.27  E(vib)   ...       0.01
freq.    1382.86  E(vib)   ...       0.01
freq.    1394.86  E(vib)   ...       0.00
freq.    1417.49  E(vib)   ...       0.00
freq.    1437.49  E(vib)   ...       0.00
freq.    1438.59  E(vib)   ...       0.00
freq.    1448.54  E(vib)   ...       0.00
freq.    1453.40  E(vib)   ...       0.00
freq.    1462.83  E(vib)   ...       0.00
freq.    1485.74  E(vib)   ...       0.00
freq.    1515.80  E(vib)   ...       0.00
freq.    1516.98  E(vib)   ...       0.00
freq.    1526.63  E(vib)   ...       0.00
freq.    1527.49  E(vib)   ...       0.00
freq.    1530.29  E(vib)   ...       0.00
freq.    1535.48  E(vib)   ...       0.00
freq.    1541.06  E(vib)   ...       0.00
freq.    1549.37  E(vib)   ...       0.00
freq.    1865.77  E(vib)   ...       0.00
freq.    3064.69  E(vib)   ...       0.00
freq.    3082.76  E(vib)   ...       0.00
freq.    3091.72  E(vib)   ...       0.00
freq.    3092.45  E(vib)   ...       0.00
freq.    3094.59  E(vib)   ...       0.00
freq.    3096.61  E(vib)   ...       0.00
freq.    3106.93  E(vib)   ...       0.00
freq.    3111.09  E(vib)   ...       0.00
freq.    3113.44  E(vib)   ...       0.00
freq.    3150.10  E(vib)   ...       0.00
freq.    3170.09  E(vib)   ...       0.00
freq.    3174.09  E(vib)   ...       0.00
freq.    3175.97  E(vib)   ...       0.00
freq.    3180.56  E(vib)   ...       0.00
freq.    3184.31  E(vib)   ...       0.00
freq.    3190.01  E(vib)   ...       0.00
freq.    3198.77  E(vib)   ...       0.00
freq.    3217.39  E(vib)   ...       0.00

------------
INNER ENERGY
------------

The inner energy is: U= E(el) + E(ZPE) + E(vib) + E(rot) + E(trans)
    E(el)   - is the total energy from the electronic structure calculation
              = E(kin-el) + E(nuc-el) + E(el-el) + E(nuc-nuc)
    E(ZPE)  - the the zero temperature vibrational energy from the frequency calculation
    E(vib)  - the the finite temperature correction to E(ZPE) due to population
              of excited vibrational states
    E(rot)  - is the rotational thermal energy
    E(trans)- is the translational thermal energy

Summary of contributions to the inner energy U:
Electronic energy                ...    -83.92233268 Eh
Zero point energy                ...      0.27023965 Eh     169.58 kcal/mol
Thermal vibrational correction   ...      0.00897880 Eh       5.63 kcal/mol
Thermal rotational correction    ...      0.00141627 Eh       0.89 kcal/mol
Thermal translational correction ...      0.00141627 Eh       0.89 kcal/mol
-----------------------------------------------------------------------
Total thermal energy                    -83.64028168 Eh

Summary of corrections to the electronic energy:
(perhaps to be used in another calculation)
Total thermal correction                  0.01181134 Eh       7.41 kcal/mol
Non-thermal (ZPE) correction              0.27023965 Eh     169.58 kcal/mol
-----------------------------------------------------------------------
Total correction                          0.28205099 Eh     176.99 kcal/mol

--------
ENTHALPY
--------

The enthalpy is H = U + kB*T
                kB is Boltzmann's constant
Total thermal energy              ...    -83.64028168 Eh
Thermal Enthalpy correction       ...      0.00094421 Eh       0.59 kcal/mol
-----------------------------------------------------------------------
Total Enthalpy                    ...    -83.63933747 Eh

Note: Only C1 symmetry has been detected, increase convergence thresholds
      if your molecule has a higher symmetry. Symmetry factor of 1.0 is
      used for the rotational entropy correction.

Note: Rotational entropy computed according to Herzberg
Infrared and Raman Spectra, Chapter V,1, Van Nostrand Reinhold, 1945
Point Group:  C1, Symmetry Number:   1
Rotational constants in cm-1:     0.065394     0.023746     0.019639

Vibrational entropy computed according to the QRRHO of S. Grimme
Chem.Eur.J. 2012 18 9955 using a reference frequency of 100.0 cm-1

-------
ENTROPY
-------

                             ****ORCA TERMINATED NORMALLY****
TOTAL RUN TIME: 0 days 0 hours 15 minutes 7 seconds 526 msec
