                         Program Version 6.0.1  -  RELEASE   -
|  1> ! wB97X-3c OPT FREQ TightSCF
|  2> %pal
|  3>   nprocs 40
|  4> end
|  5> * xyz 0 1
|  6> C      3.400117     0.846432    -0.934828
|  7> C      1.959375     0.745270    -0.517812
|  8> C      0.980320     0.931389    -1.418390
|  9> C     -0.453420     0.775296    -0.992923
| 10> C     -0.624497    -0.512238    -0.150323
| 11> C      0.506022    -0.717388     0.911624
| 12> C      1.576525     0.390035     0.900596
| 13> C     -2.010463    -0.564962     0.478383
| 14> C     -2.376025     0.324644     1.416890
| 15> C     -2.999064    -1.620740     0.056056
| 16> H      4.080485     0.667000    -0.076443
| 17> H      3.617068     0.092721    -1.720987
| 18> H      3.603344     1.861451    -1.336796
| 19> H      1.214063     1.147428    -2.457305
| 20> H     -1.107657     0.734245    -1.890534
| 21> H     -0.737041     1.671788    -0.400735
| 22> H     -0.533289    -1.355899    -0.870666
| 23> H      0.093096    -0.795132     1.941010
| 24> H      1.011879    -1.687710     0.709935
| 25> H      2.460587     0.056307     1.484957
| 26> H      1.165615     1.296596     1.395801
| 27> H     -3.365102     0.286876     1.863912
| 28> H     -1.690830     1.095777     1.755180
| 29> H     -3.911561    -1.137612    -0.353112
| 30> H     -2.580165    -2.288008    -0.725305
| 31> H     -3.279380    -2.243566     0.931816
| 32> *
| 33>
| 34>                          ****END OF INPUT****
 Total Charge           Charge          ....    0
 Multiplicity           Mult            ....    1
 Number of Electrons    NEL             ....   56
Dispersion correction           -0.030043422
FINAL SINGLE POINT ENERGY       -66.580608830628
Dispersion correction             ... done (  0.1 sec)
Dispersion correction           -0.030276160
FINAL SINGLE POINT ENERGY       -66.587075693218
Dispersion correction             ... done (  0.1 sec)
Dispersion correction           -0.030306748
FINAL SINGLE POINT ENERGY       -66.587660344202
Dispersion correction             ... done (  0.1 sec)
FINAL SINGLE POINT ENERGY       -66.588104159721
FINAL SINGLE POINT ENERGY       -66.588716526220
FINAL SINGLE POINT ENERGY       -66.589287814538
FINAL SINGLE POINT ENERGY       -66.590022736241
FINAL SINGLE POINT ENERGY       -66.590837407399
FINAL SINGLE POINT ENERGY       -66.591811996622
FINAL SINGLE POINT ENERGY       -66.593554334762
FINAL SINGLE POINT ENERGY       -66.601701440567
FINAL SINGLE POINT ENERGY       -66.601675707489
FINAL SINGLE POINT ENERGY       -66.602907842341
FINAL SINGLE POINT ENERGY       -66.603126380439
FINAL SINGLE POINT ENERGY       -66.603205946565
FINAL SINGLE POINT ENERGY       -66.603442455211
FINAL SINGLE POINT ENERGY       -66.603479836828
Dispersion correction             ... done (  0.1 sec)
Dispersion correction           -0.031540816
FINAL SINGLE POINT ENERGY       -66.603497173215
Dispersion correction             ... done (  0.1 sec)
Dispersion correction           -0.031549476
FINAL SINGLE POINT ENERGY       -66.603500725634
Dispersion correction             ... done (  0.1 sec)
                    ***********************HURRAY********************

CARTESIAN COORDINATES (ANGSTROEM)
---------------------------------
  C      2.452706    1.800354   -0.595160
  C      1.518619    0.639645   -0.480232
  C      0.754941    0.238544   -1.489139
  C     -0.208465   -0.904396   -1.399611
  C     -0.613040   -1.203288    0.042694
  C      0.664076   -1.323659    0.864105
  C      1.484935   -0.042307    0.855031
  C     -1.633366   -0.229791    0.599011
  C     -1.618650    0.206223    1.851986
  C     -2.748474    0.170658   -0.319302
  H      2.210723    2.563956    0.146099
  H      3.482452    1.491526   -0.408361
  H      2.406305    2.257210   -1.581562
  H      0.828248    0.754229   -2.440745
  H      0.249287   -1.801527   -1.826528
  H     -1.080598   -0.704385   -2.019780
  H     -1.110739   -2.179122    0.042898
  H      0.448619   -1.630649    1.887268
  H      1.259151   -2.127818    0.426372
  H      2.509612   -0.264156    1.164180
  H      1.105237    0.671071    1.589954
  H     -2.405176    0.851286    2.221557
  H     -0.842340   -0.058082    2.554937
  H     -3.534525    0.687086    0.226676
  H     -2.391069    0.837079   -1.104002
  H     -3.188467   -0.699687   -0.808345

 Multiplicity           Mult            ....    1
 Number of Electrons    NEL             ....   56
 Basis Dimension        Dim             ....  210

ORBITAL ENERGIES
----------------

  NO   OCC          E(Eh)            E(eV)
   0   2.0000      -0.992954       -27.0197
   1   2.0000      -0.940485       -25.5919
   2   2.0000      -0.890635       -24.2354
   3   2.0000      -0.880280       -23.9536
   4   2.0000      -0.816039       -22.2056
   5   2.0000      -0.810730       -22.0611
   6   2.0000      -0.747321       -20.3356
   7   2.0000      -0.730397       -19.8751
   8   2.0000      -0.651573       -17.7302
   9   2.0000      -0.615431       -16.7467
  10   2.0000      -0.600992       -16.3538
  11   2.0000      -0.573096       -15.5947
  12   2.0000      -0.560656       -15.2562
  13   2.0000      -0.547876       -14.9085
  14   2.0000      -0.537978       -14.6391
  15   2.0000      -0.528056       -14.3691
  16   2.0000      -0.511238       -13.9115
  17   2.0000      -0.502407       -13.6712
  18   2.0000      -0.494811       -13.4645
  19   2.0000      -0.486227       -13.2309
  20   2.0000      -0.470854       -12.8126
  21   2.0000      -0.468109       -12.7379
  22   2.0000      -0.461786       -12.5658
  23   2.0000      -0.418570       -11.3899
  24   2.0000      -0.415776       -11.3138
  25   2.0000      -0.404193       -10.9986
  26   2.0000      -0.342995        -9.3334
  27   2.0000      -0.328741        -8.9455
  28   0.0000       0.080627         2.1940
  29   0.0000       0.087939         2.3929
  30   0.0000       0.098860         2.6901
  31   0.0000       0.107317         2.9203
  32   0.0000       0.109574         2.9817

MULLIKEN ATOMIC CHARGES
-----------------------
   0 C :   -0.052174
   1 C :   -0.045713
   2 C :   -0.018731
   3 C :   -0.049700
   4 C :   -0.116133
   5 C :   -0.032901
   6 C :   -0.060540
   7 C :   -0.048636
   8 C :   -0.026064
   9 C :   -0.046197
  10 H :    0.036216
  11 H :    0.034969
  12 H :    0.023444
  13 H :    0.011476
  14 H :    0.042569
  15 H :    0.028369
  16 H :    0.049076
  17 H :    0.033336
  18 H :    0.031841
  19 H :    0.036451
  20 H :    0.035895
  21 H :    0.016783
  22 H :    0.011410
  23 H :    0.027278
  24 H :    0.042884
  25 H :    0.034792
Sum of atomic charges:    0.0000000

LOEWDIN ATOMIC CHARGES
----------------------
   0 C :   -0.107678
   1 C :   -0.045672
   2 C :   -0.054782
   3 C :   -0.084498
   4 C :   -0.063591
   5 C :   -0.070881
   6 C :   -0.077280
   7 C :   -0.033055
   8 C :   -0.084016
   9 C :   -0.107256
  10 H :    0.049512
  11 H :    0.047658
  12 H :    0.049149
  13 H :    0.035804
  14 H :    0.049551
  15 H :    0.044688
  16 H :    0.055467
  17 H :    0.043718
  18 H :    0.049605
  19 H :    0.050423
  20 H :    0.045752
  21 H :    0.031563
  22 H :    0.027797
  23 H :    0.050351
  24 H :    0.049270
  25 H :    0.048402

  Mayer bond orders larger than 0.100000
B(  0-C ,  1-C ) :   1.0366 B(  0-C , 10-H ) :   0.9793 B(  0-C , 11-H ) :   0.9799
B(  0-C , 12-H ) :   0.9910 B(  1-C ,  2-C ) :   1.8916 B(  1-C ,  6-C ) :   1.0167
B(  2-C ,  3-C ) :   1.0278 B(  2-C , 13-H ) :   0.9876 B(  3-C ,  4-C ) :   0.9839
B(  3-C , 14-H ) :   0.9819 B(  3-C , 15-H ) :   0.9912 B(  4-C ,  5-C ) :   1.0010
B(  4-C ,  7-C ) :   1.0213 B(  4-C , 16-H ) :   0.9860 B(  5-C ,  6-C ) :   0.9878
B(  5-C , 17-H ) :   0.9988 B(  5-C , 18-H ) :   0.9948 B(  6-C , 19-H ) :   0.9858
B(  6-C , 20-H ) :   0.9814 B(  7-C ,  8-C ) :   1.9443 B(  7-C ,  9-C ) :   1.0276
B(  8-C , 21-H ) :   0.9844 B(  8-C , 22-H ) :   0.9883 B(  9-C , 23-H ) :   0.9918
B(  9-C , 24-H ) :   0.9761 B(  9-C , 25-H ) :   0.9801

Dispersion correction           -0.031548874
FINAL SINGLE POINT ENERGY       -66.603501270334

DIPOLE MOMENT
-------------

Method             : SCF
Type of density    : Electron Density
Multiplicity       :   1
Irrep              :   0
Energy             :   -66.5719523965921098 Eh
Relativity type    :
Basis              : AO
                                X                 Y                 Z
Electronic contribution:      0.202637964      -1.965987449      -0.290761599
Nuclear contribution   :     -0.153318854       1.864699042       0.203205225
                        -----------------------------------------
Total Dipole Moment    :      0.049319109      -0.101288407      -0.087556374
                        -----------------------------------------
Magnitude (a.u.)       :      0.142680884
Magnitude (Debye)      :      0.362665985

VIBRATIONAL FREQUENCIES
-----------------------

Scaling factor for frequencies =  1.000000000  (already applied!)

     0:       0.00 cm**-1
     1:       0.00 cm**-1
     2:       0.00 cm**-1
     3:       0.00 cm**-1
     4:       0.00 cm**-1
     5:       0.00 cm**-1
     6:      49.09 cm**-1
     7:      73.66 cm**-1
     8:     165.94 cm**-1
     9:     203.20 cm**-1
    10:     238.31 cm**-1
    11:     243.63 cm**-1
    12:     329.98 cm**-1
    13:     335.96 cm**-1
    14:     395.11 cm**-1
    15:     400.04 cm**-1
    16:     433.33 cm**-1
    17:     453.02 cm**-1
    18:     462.56 cm**-1
    19:     553.46 cm**-1
    20:     589.15 cm**-1
    21:     707.30 cm**-1
    22:     715.21 cm**-1
    23:     793.86 cm**-1
    24:     836.23 cm**-1
    25:     839.14 cm**-1
    26:     915.22 cm**-1
    27:     935.91 cm**-1
    28:     940.25 cm**-1
    29:     968.87 cm**-1
    30:     993.08 cm**-1
    31:    1006.28 cm**-1
    32:    1043.71 cm**-1
    33:    1053.11 cm**-1
    34:    1060.71 cm**-1
    35:    1085.82 cm**-1
    36:    1110.87 cm**-1
    37:    1122.42 cm**-1
    38:    1147.91 cm**-1
    39:    1213.96 cm**-1
    40:    1227.42 cm**-1
    41:    1256.45 cm**-1
    42:    1271.62 cm**-1
    43:    1307.00 cm**-1
    44:    1351.36 cm**-1
    45:    1381.49 cm**-1
    46:    1402.97 cm**-1
    47:    1418.65 cm**-1
    48:    1425.65 cm**-1
    49:    1441.93 cm**-1
    50:    1449.56 cm**-1
    51:    1460.67 cm**-1
    52:    1474.24 cm**-1
    53:    1505.17 cm**-1
    54:    1510.39 cm**-1
    55:    1511.42 cm**-1
    56:    1520.17 cm**-1
    57:    1523.24 cm**-1
    58:    1529.79 cm**-1
    59:    1546.23 cm**-1
    60:    1768.17 cm**-1
    61:    1805.69 cm**-1
    62:    3070.91 cm**-1
    63:    3090.54 cm**-1
    64:    3092.21 cm**-1
    65:    3095.36 cm**-1
    66:    3100.19 cm**-1
    67:    3108.54 cm**-1
    68:    3137.12 cm**-1
    69:    3161.50 cm**-1
    70:    3165.45 cm**-1
    71:    3170.20 cm**-1
    72:    3181.72 cm**-1
    73:    3203.47 cm**-1
    74:    3206.39 cm**-1
    75:    3214.98 cm**-1
    76:    3217.43 cm**-1
    77:    3310.63 cm**-1

IR SPECTRUM
-----------

 Mode   freq       eps      Int      T**2         TX        TY        TZ
       cm**-1   L/(mol*cm) km/mol    a.u.
----------------------------------------------------------------------------
  6:     49.09   0.000030    0.15  0.000193  (-0.006954 -0.012023  0.000147)
  7:     73.66   0.000006    0.03  0.000025  ( 0.001549  0.000521 -0.004775)
  8:    165.94   0.000228    1.15  0.000428  ( 0.017930 -0.008989 -0.005079)
  9:    203.20   0.000005    0.02  0.000007  (-0.000533 -0.000975 -0.002388)
 10:    238.31   0.000137    0.69  0.000179  (-0.011788  0.000064  0.006352)
 11:    243.63   0.000153    0.77  0.000196  ( 0.009854 -0.009957  0.000419)
 12:    329.98   0.000031    0.16  0.000029  ( 0.004881 -0.000819 -0.002219)
 13:    335.96   0.000122    0.62  0.000113  ( 0.009715  0.000727  0.004265)
 14:    395.11   0.000548    2.77  0.000432  ( 0.007248 -0.019455 -0.001184)
 15:    400.04   0.000326    1.65  0.000254  (-0.008879 -0.013164 -0.001490)
 16:    433.33   0.000293    1.48  0.000211  (-0.000500 -0.014456  0.001243)
 17:    453.02   0.001060    5.36  0.000730  (-0.021304  0.000773  0.016604)
 18:    462.56   0.000442    2.23  0.000298  ( 0.015736 -0.006403 -0.003109)
 19:    553.46   0.000559    2.82  0.000315  ( 0.012989  0.007255 -0.009673)
 20:    589.15   0.000072    0.37  0.000038  (-0.001219 -0.003876  0.004677)
 21:    707.30   0.000073    0.37  0.000032  (-0.003743  0.002805 -0.003183)
 22:    715.21   0.000202    1.02  0.000088  ( 0.005543 -0.005926 -0.004729)
 23:    793.86   0.000834    4.21  0.000328  ( 0.011637 -0.010798 -0.008707)
 24:    836.23   0.000742    3.75  0.000277  ( 0.008777 -0.013721 -0.003408)
 25:    839.14   0.001411    7.13  0.000525  ( 0.014628 -0.015581 -0.008253)
 26:    915.22   0.000336    1.70  0.000115  (-0.006207 -0.006863  0.005389)
 27:    935.91   0.005721   28.91  0.001907  ( 0.017962  0.036280 -0.016390)
 28:    940.25   0.003208   16.21  0.001065  ( 0.024228  0.020358 -0.007952)
 29:    968.87   0.001077    5.44  0.000347  (-0.008624  0.001737  0.016415)
 30:    993.08   0.000147    0.74  0.000046  (-0.005665  0.001956 -0.003211)
 31:   1006.28   0.000533    2.69  0.000165  ( 0.007798 -0.005315 -0.008731)
 32:   1043.71   0.000327    1.65  0.000098  ( 0.000906 -0.000275  0.009842)
 33:   1053.11   0.000025    0.13  0.000007  ( 0.001780 -0.001438  0.001474)
 34:   1060.71   0.000571    2.89  0.000168  ( 0.004715 -0.010343 -0.006225)
 35:   1085.82   0.000271    1.37  0.000078  (-0.007283  0.002134  0.004499)
 36:   1110.87   0.000666    3.37  0.000187  (-0.010295 -0.000405 -0.008997)
 37:   1122.42   0.000017    0.09  0.000005  ( 0.000693 -0.002049 -0.000122)
 38:   1147.91   0.000510    2.58  0.000139  (-0.008193 -0.004191 -0.007338)
 39:   1213.96   0.000949    4.79  0.000244  (-0.013686  0.000687  0.007487)
 40:   1227.42   0.000575    2.90  0.000146  ( 0.008312 -0.001196  0.008695)
 41:   1256.45   0.000081    0.41  0.000020  (-0.000236 -0.004308 -0.001177)
 42:   1271.62   0.001139    5.76  0.000279  ( 0.014734 -0.007222  0.003197)
 43:   1307.00   0.000676    3.42  0.000161  ( 0.008522  0.000857 -0.009387)
 44:   1351.36   0.000745    3.77  0.000172  (-0.011830  0.002594 -0.005046)
 45:   1381.49   0.000177    0.90  0.000040  ( 0.001197  0.004335  0.004453)
 46:   1402.97   0.000129    0.65  0.000029  ( 0.003712 -0.001140  0.003682)
 47:   1418.65   0.000512    2.59  0.000113  ( 0.008204 -0.002359 -0.006301)
 48:   1425.65   0.000042    0.21  0.000009  ( 0.002067  0.000766  0.002062)
 49:   1441.93   0.000981    4.96  0.000212  (-0.008185  0.009186 -0.007808)
 50:   1449.56   0.001242    6.28  0.000267  (-0.013595 -0.000760 -0.009055)
 51:   1460.67   0.001276    6.45  0.000273  ( 0.007846  0.012521 -0.007367)
 52:   1474.24   0.000708    3.58  0.000150  ( 0.007849 -0.009331 -0.001070)
 53:   1505.17   0.000749    3.79  0.000155  ( 0.002435  0.010872  0.005588)
 54:   1510.39   0.002052   10.37  0.000424  (-0.016253  0.011215  0.005826)
 55:   1511.42   0.003265   16.50  0.000674  (-0.005242 -0.022797 -0.011270)
 56:   1520.17   0.004963   25.08  0.001019  ( 0.017844 -0.003524 -0.026230)
 57:   1523.24   0.001800    9.10  0.000369  (-0.009521 -0.000616 -0.016666)
 58:   1529.79   0.002824   14.27  0.000576  (-0.012734  0.014025 -0.014740)
 59:   1546.23   0.000544    2.75  0.000110  (-0.002506  0.006628 -0.007719)
 60:   1768.17   0.005150   26.03  0.000909  ( 0.001668 -0.007350 -0.029192)
 61:   1805.69   0.000795    4.02  0.000137  (-0.006160 -0.003873 -0.009189)
 62:   3070.91   0.002640   13.34  0.000268  (-0.013157 -0.009073  0.003587)
 63:   3090.54   0.001502    7.59  0.000152  (-0.000536  0.011434  0.004543)
 64:   3092.21   0.004311   21.78  0.000435  (-0.000889 -0.009132 -0.018731)
 65:   3095.36   0.017222   87.03  0.001736  ( 0.026450  0.028610  0.014771)
 66:   3100.19   0.006376   32.22  0.000642  ( 0.018191  0.000288  0.017629)
 67:   3108.54   0.007284   36.81  0.000731  ( 0.009526 -0.024147  0.007578)
 68:   3137.12   0.003738   18.89  0.000372  (-0.012709  0.014438 -0.001377)
 69:   3161.50   0.004730   23.90  0.000467  (-0.006987  0.001107  0.020417)
 70:   3165.45   0.004103   20.74  0.000405  (-0.018793  0.000380 -0.007155)
 71:   3170.20   0.002368   11.97  0.000233  (-0.011397  0.008666  0.005300)
 72:   3181.72   0.001737    8.78  0.000170  (-0.002354 -0.012715  0.001774)
 73:   3203.47   0.001728    8.73  0.000168  ( 0.002580 -0.004262  0.011979)
 74:   3206.39   0.002280   11.52  0.000222  ( 0.010881 -0.005672 -0.008445)
 75:   3214.98   0.005701   28.81  0.000553  (-0.004264 -0.009442  0.021119)
 76:   3217.43   0.001773    8.96  0.000172  ( 0.005984 -0.005358 -0.010366)
 77:   3310.63   0.001373    6.94  0.000129  (-0.009847  0.005298 -0.002103)

--------------------------
THERMOCHEMISTRY AT 298.15K
--------------------------

Temperature         ...   298.15 K
Pressure            ...     1.00 atm
Total Mass          ...   136.24 AMU
Quasi RRHO          ...     True
Cut-Off Frequency   ...     1.00 cm^-1

Throughout the following assumptions are being made:
  (1) The electronic state is orbitally nondegenerate
  (2) There are no thermally accessible electronically excited states
  (3) Hindered rotations indicated by low frequency modes are not
      treated as such but are treated as vibrations and this may
      cause some error
  (4) All equations used are the standard statistical mechanics
      equations for an ideal gas
  (5) All vibrations are strictly harmonic

freq.      49.09  E(vib)   ...       0.53
freq.      73.66  E(vib)   ...       0.49
freq.     165.94  E(vib)   ...       0.39
freq.     203.20  E(vib)   ...       0.35
freq.     238.31  E(vib)   ...       0.32
freq.     243.63  E(vib)   ...       0.31
freq.     329.98  E(vib)   ...       0.24
freq.     335.96  E(vib)   ...       0.24
freq.     395.11  E(vib)   ...       0.20
freq.     400.04  E(vib)   ...       0.19
freq.     433.33  E(vib)   ...       0.17
freq.     453.02  E(vib)   ...       0.16
freq.     462.56  E(vib)   ...       0.16
freq.     553.46  E(vib)   ...       0.12
freq.     589.15  E(vib)   ...       0.10
freq.     707.30  E(vib)   ...       0.07
freq.     715.21  E(vib)   ...       0.07
freq.     793.86  E(vib)   ...       0.05
freq.     836.23  E(vib)   ...       0.04
freq.     839.14  E(vib)   ...       0.04
freq.     915.22  E(vib)   ...       0.03
freq.     935.91  E(vib)   ...       0.03
freq.     940.25  E(vib)   ...       0.03
freq.     968.87  E(vib)   ...       0.03
freq.     993.08  E(vib)   ...       0.02
freq.    1006.28  E(vib)   ...       0.02
freq.    1043.71  E(vib)   ...       0.02
freq.    1053.11  E(vib)   ...       0.02
freq.    1060.71  E(vib)   ...       0.02
freq.    1085.82  E(vib)   ...       0.02
freq.    1110.87  E(vib)   ...       0.01
freq.    1122.42  E(vib)   ...       0.01
freq.    1147.91  E(vib)   ...       0.01
freq.    1213.96  E(vib)   ...       0.01
freq.    1227.42  E(vib)   ...       0.01
freq.    1256.45  E(vib)   ...       0.01
freq.    1271.62  E(vib)   ...       0.01
freq.    1307.00  E(vib)   ...       0.01
freq.    1351.36  E(vib)   ...       0.01
freq.    1381.49  E(vib)   ...       0.01
freq.    1402.97  E(vib)   ...       0.00
freq.    1418.65  E(vib)   ...       0.00
freq.    1425.65  E(vib)   ...       0.00
freq.    1441.93  E(vib)   ...       0.00
freq.    1449.56  E(vib)   ...       0.00
freq.    1460.67  E(vib)   ...       0.00
freq.    1474.24  E(vib)   ...       0.00
freq.    1505.17  E(vib)   ...       0.00
freq.    1510.39  E(vib)   ...       0.00
freq.    1511.42  E(vib)   ...       0.00
freq.    1520.17  E(vib)   ...       0.00
freq.    1523.24  E(vib)   ...       0.00
freq.    1529.79  E(vib)   ...       0.00
freq.    1546.23  E(vib)   ...       0.00
freq.    1768.17  E(vib)   ...       0.00
freq.    1805.69  E(vib)   ...       0.00
freq.    3070.91  E(vib)   ...       0.00
freq.    3090.54  E(vib)   ...       0.00
freq.    3092.21  E(vib)   ...       0.00
freq.    3095.36  E(vib)   ...       0.00
freq.    3100.19  E(vib)   ...       0.00
freq.    3108.54  E(vib)   ...       0.00
freq.    3137.12  E(vib)   ...       0.00
freq.    3161.50  E(vib)   ...       0.00
freq.    3165.45  E(vib)   ...       0.00
freq.    3170.20  E(vib)   ...       0.00
freq.    3181.72  E(vib)   ...       0.00
freq.    3203.47  E(vib)   ...       0.00
freq.    3206.39  E(vib)   ...       0.00
freq.    3214.98  E(vib)   ...       0.00
freq.    3217.43  E(vib)   ...       0.00
freq.    3310.63  E(vib)   ...       0.00

------------
INNER ENERGY
------------

The inner energy is: U= E(el) + E(ZPE) + E(vib) + E(rot) + E(trans)
    E(el)   - is the total energy from the electronic structure calculation
              = E(kin-el) + E(nuc-el) + E(el-el) + E(nuc-nuc)
    E(ZPE)  - the the zero temperature vibrational energy from the frequency calculation
    E(vib)  - the the finite temperature correction to E(ZPE) due to population
              of excited vibrational states
    E(rot)  - is the rotational thermal energy
    E(trans)- is the translational thermal energy

Summary of contributions to the inner energy U:
Electronic energy                ...    -66.60350127 Eh
Zero point energy                ...      0.24155923 Eh     151.58 kcal/mol
Thermal vibrational correction   ...      0.00736526 Eh       4.62 kcal/mol
Thermal rotational correction    ...      0.00141627 Eh       0.89 kcal/mol
Thermal translational correction ...      0.00141627 Eh       0.89 kcal/mol
-----------------------------------------------------------------------
Total thermal energy                    -66.35174424 Eh

Summary of corrections to the electronic energy:
(perhaps to be used in another calculation)
Total thermal correction                  0.01019780 Eh       6.40 kcal/mol
Non-thermal (ZPE) correction              0.24155923 Eh     151.58 kcal/mol
-----------------------------------------------------------------------
Total correction                          0.25175704 Eh     157.98 kcal/mol

--------
ENTHALPY
--------

The enthalpy is H = U + kB*T
                kB is Boltzmann's constant
Total thermal energy              ...    -66.35174424 Eh
Thermal Enthalpy correction       ...      0.00094421 Eh       0.59 kcal/mol
-----------------------------------------------------------------------
Total Enthalpy                    ...    -66.35080003 Eh

Note: Only C1 symmetry has been detected, increase convergence thresholds
      if your molecule has a higher symmetry. Symmetry factor of 1.0 is
      used for the rotational entropy correction.

Note: Rotational entropy computed according to Herzberg
Infrared and Raman Spectra, Chapter V,1, Van Nostrand Reinhold, 1945
Point Group:  C1, Symmetry Number:   1
Rotational constants in cm-1:     0.066918     0.033140     0.030700

Vibrational entropy computed according to the QRRHO of S. Grimme
Chem.Eur.J. 2012 18 9955 using a reference frequency of 100.0 cm-1

-------
ENTROPY
-------

The entropy contributions are T*S = T*(S(el)+S(vib)+S(rot)+S(trans))
     S(el)   - electronic entropy
     S(vib)  - vibrational entropy
     S(rot)  - rotational entropy
     S(trans)- translational entropy
The entropies will be listed as multiplied by the temperature to get
units of energy

                             ****ORCA TERMINATED NORMALLY****
TOTAL RUN TIME: 0 days 0 hours 47 minutes 18 seconds 175 msec
