                         Program Version 6.0.1  -  RELEASE   -
|  1> ! wB97X-3c OPT FREQ TightSCF
|  2> %pal
|  3>   nprocs 40
|  4> end
|  5> * xyz 0 1
|  6> C     -2.872894    -0.102124     0.425060
|  7> C     -2.458616     0.962899    -0.376966
|  8> C     -1.114812     1.083455    -0.743701
|  9> C     -0.166274     0.143662    -0.303444
| 10> C     -0.599223    -0.936485     0.494078
| 11> C     -1.945054    -1.051988     0.856965
| 12> C      1.246277     0.309385    -0.727226
| 13> C      2.283940    -0.265440    -0.107313
| 14> C      3.657198    -0.046395    -0.575437
| 15> O      4.621017    -0.583234     0.030286
| 16> H     -3.913848    -0.194918     0.706667
| 17> H     -3.179332     1.695779    -0.716117
| 18> H     -0.813590     1.917239    -1.366384
| 19> H      0.085166    -1.706136     0.821602
| 20> H     -2.270131    -1.883846     1.468541
| 21> H      1.443896     0.968303    -1.566037
| 22> H      2.141405    -0.884325     0.767678
| 23> H      3.854876     0.574169    -1.440600
| 24> *
| 25>
| 26>                          ****END OF INPUT****
 Total Charge           Charge          ....    0
 Multiplicity           Mult            ....    1
 Number of Electrons    NEL             ....   50
Dispersion correction           -0.021930114
FINAL SINGLE POINT ENERGY       -72.091836907130
Dispersion correction             ... done (  0.1 sec)
Dispersion correction           -0.022134594
FINAL SINGLE POINT ENERGY       -72.098136796529
Dispersion correction             ... done (  0.1 sec)
Dispersion correction           -0.022168641
FINAL SINGLE POINT ENERGY       -72.098999130171
Dispersion correction             ... done (  0.1 sec)
FINAL SINGLE POINT ENERGY       -72.099012084165
FINAL SINGLE POINT ENERGY       -72.099206222230
FINAL SINGLE POINT ENERGY       -72.099261773913
FINAL SINGLE POINT ENERGY       -72.099277673772
FINAL SINGLE POINT ENERGY       -72.099302075632
FINAL SINGLE POINT ENERGY       -72.099315312171
FINAL SINGLE POINT ENERGY       -72.099329115049
FINAL SINGLE POINT ENERGY       -72.099335925722
FINAL SINGLE POINT ENERGY       -72.099338084351
Dispersion correction             ... done (  0.1 sec)
Dispersion correction           -0.022145238
FINAL SINGLE POINT ENERGY       -72.099338782418
Dispersion correction             ... done (  0.1 sec)
Dispersion correction           -0.022145469
FINAL SINGLE POINT ENERGY       -72.099338949305
Dispersion correction             ... done (  0.1 sec)
                    ***********************HURRAY********************

CARTESIAN COORDINATES (ANGSTROEM)
---------------------------------
  C     -2.871945   -0.111042    0.358646
  C     -2.443909    0.899857   -0.481690
  C     -1.097835    1.033226   -0.768700
  C     -0.161082    0.161974   -0.224318
  C     -0.605411   -0.851353    0.621530
  C     -1.947654   -0.985664    0.909420
  C      1.249273    0.345932   -0.562449
  C      2.283793   -0.393491   -0.166845
  C      3.635790   -0.057620   -0.609336
  O      4.621757   -0.675015   -0.297181
  H     -3.923126   -0.219590    0.586644
  H     -3.157960    1.586268   -0.914581
  H     -0.765201    1.825365   -1.426520
  H      0.101205   -1.540302    1.060709
  H     -2.278070   -1.776707    1.568000
  H      1.459303    1.188312   -1.214900
  H      2.190000   -1.255552    0.479784
  H      3.711073    0.825401   -1.270561

 Multiplicity           Mult            ....    1
 Number of Electrons    NEL             ....   50
 Basis Dimension        Dim             ....  170

ORBITAL ENERGIES
----------------

  NO   OCC          E(Eh)            E(eV)
   0   2.0000      -1.173930       -31.9443
   1   2.0000      -1.031242       -28.0615
   2   2.0000      -0.967766       -26.3343
   3   2.0000      -0.909334       -24.7442
   4   2.0000      -0.901609       -24.5340
   5   2.0000      -0.797337       -21.6966
   6   2.0000      -0.760735       -20.7006
   7   2.0000      -0.726902       -19.7800
   8   2.0000      -0.701986       -19.1020
   9   2.0000      -0.660363       -17.9694
  10   2.0000      -0.616949       -16.7880
  11   2.0000      -0.601062       -16.3557
  12   2.0000      -0.574914       -15.6442
  13   2.0000      -0.567873       -15.4526
  14   2.0000      -0.553035       -15.0489
  15   2.0000      -0.538713       -14.6591
  16   2.0000      -0.527860       -14.3638
  17   2.0000      -0.511528       -13.9194
  18   2.0000      -0.510039       -13.8789
  19   2.0000      -0.475673       -12.9437
  20   2.0000      -0.465884       -12.6774
  21   2.0000      -0.428347       -11.6559
  22   2.0000      -0.370932       -10.0936
  23   2.0000      -0.370572       -10.0838
  24   2.0000      -0.341795        -9.3007
  25   0.0000      -0.010908        -0.2968
  26   0.0000       0.050508         1.3744
  27   0.0000       0.076668         2.0863
  28   0.0000       0.081827         2.2266
  29   0.0000       0.082133         2.2349

MULLIKEN ATOMIC CHARGES
-----------------------
   0 C :   -0.002674
   1 C :    0.002906
   2 C :    0.004185
   3 C :   -0.075986
   4 C :    0.008709
   5 C :   -0.002996
   6 C :    0.011349
   7 C :    0.009072
   8 C :    0.184473
   9 O :   -0.300835
  10 H :    0.023031
  11 H :    0.021251
  12 H :    0.022042
  13 H :    0.019264
  14 H :    0.021886
  15 H :    0.023454
  16 H :    0.031682
  17 H :   -0.000813
Sum of atomic charges:    0.0000000

LOEWDIN ATOMIC CHARGES
----------------------
   0 C :   -0.033399
   1 C :   -0.040207
   2 C :   -0.024484
   3 C :   -0.053374
   4 C :   -0.016976
   5 C :   -0.037989
   6 C :   -0.000890
   7 C :   -0.046794
   8 C :   -0.004194
   9 O :   -0.128005
  10 H :    0.050082
  11 H :    0.050117
  12 H :    0.049531
  13 H :    0.049089
  14 H :    0.050595
  15 H :    0.054072
  16 H :    0.047144
  17 H :    0.035681

  Mayer bond orders larger than 0.100000
B(  0-C ,  1-C ) :   1.4499 B(  0-C ,  5-C ) :   1.4272 B(  0-C , 10-H ) :   0.9929
B(  1-C ,  2-C ) :   1.4507 B(  1-C , 11-H ) :   0.9893 B(  2-C ,  3-C ) :   1.4124
B(  2-C , 12-H ) :   0.9880 B(  3-C ,  4-C ) :   1.4172 B(  3-C ,  6-C ) :   1.1346
B(  4-C ,  5-C ) :   1.4746 B(  4-C , 13-H ) :   0.9851 B(  5-C , 14-H ) :   0.9897
B(  6-C ,  7-C ) :   1.7481 B(  6-C , 15-H ) :   0.9912 B(  7-C ,  8-C ) :   1.1113
B(  7-C , 16-H ) :   0.9872 B(  8-C ,  9-O ) :   1.8711 B(  8-C , 17-H ) :   1.0100

Dispersion correction           -0.022146053
FINAL SINGLE POINT ENERGY       -72.099339054179

DIPOLE MOMENT
-------------

Method             : SCF
Type of density    : Electron Density
Multiplicity       :   1
Irrep              :   0
Energy             :   -72.0771930013557949 Eh
Relativity type    :
Basis              : AO
                                X                 Y                 Z
Electronic contribution:     -0.153617015      -0.229905574       0.196386925
Nuclear contribution   :     -1.560114865       0.764608199      -0.343379531
                        -----------------------------------------
Total Dipole Moment    :     -1.713731879       0.534702626      -0.146992605
                        -----------------------------------------
Magnitude (a.u.)       :      1.801219220
Magnitude (Debye)      :      4.578335411

VIBRATIONAL FREQUENCIES
-----------------------

Scaling factor for frequencies =  1.000000000  (already applied!)

     0:       0.00 cm**-1
     1:       0.00 cm**-1
     2:       0.00 cm**-1
     3:       0.00 cm**-1
     4:       0.00 cm**-1
     5:       0.00 cm**-1
     6:      17.41 cm**-1
     7:     104.97 cm**-1
     8:     116.00 cm**-1
     9:     165.91 cm**-1
    10:     309.67 cm**-1
    11:     328.93 cm**-1
    12:     356.24 cm**-1
    13:     415.95 cm**-1
    14:     516.04 cm**-1
    15:     601.30 cm**-1
    16:     630.55 cm**-1
    17:     645.52 cm**-1
    18:     713.87 cm**-1
    19:     774.79 cm**-1
    20:     867.92 cm**-1
    21:     875.76 cm**-1
    22:     882.80 cm**-1
    23:     958.92 cm**-1
    24:    1014.96 cm**-1
    25:    1019.59 cm**-1
    26:    1035.72 cm**-1
    27:    1041.17 cm**-1
    28:    1052.51 cm**-1
    29:    1081.43 cm**-1
    30:    1131.73 cm**-1
    31:    1171.76 cm**-1
    32:    1198.15 cm**-1
    33:    1227.94 cm**-1
    34:    1254.32 cm**-1
    35:    1301.96 cm**-1
    36:    1349.93 cm**-1
    37:    1370.48 cm**-1
    38:    1390.23 cm**-1
    39:    1449.61 cm**-1
    40:    1523.36 cm**-1
    41:    1574.07 cm**-1
    42:    1692.28 cm**-1
    43:    1718.45 cm**-1
    44:    1760.49 cm**-1
    45:    1852.56 cm**-1
    46:    3002.69 cm**-1
    47:    3210.81 cm**-1
    48:    3247.70 cm**-1
    49:    3255.26 cm**-1
    50:    3264.08 cm**-1
    51:    3268.34 cm**-1
    52:    3276.26 cm**-1
    53:    3282.23 cm**-1

IR SPECTRUM
-----------

 Mode   freq       eps      Int      T**2         TX        TY        TZ
       cm**-1   L/(mol*cm) km/mol    a.u.
----------------------------------------------------------------------------
  6:     17.41   0.000681    3.44  0.012210  ( 0.016998  0.066454  0.086632)
  7:    104.97   0.000015    0.07  0.000043  ( 0.003197  0.000217 -0.005747)
  8:    116.00   0.000994    5.02  0.002675  ( 0.033365  0.028203 -0.027682)
  9:    165.91   0.002195   11.09  0.004129  (-0.008212 -0.038639 -0.050679)
 10:    309.67   0.001807    9.13  0.001821  ( 0.032986  0.018504 -0.019760)
 11:    328.93   0.000478    2.42  0.000453  ( 0.002623  0.012448  0.017077)
 12:    356.24   0.000528    2.67  0.000463  (-0.012263 -0.014224  0.010493)
 13:    415.95   0.000001    0.01  0.000001  ( 0.000882  0.000384  0.000328)
 14:    516.04   0.001179    5.96  0.000713  ( 0.003578  0.016539  0.020648)
 15:    601.30   0.002479   12.53  0.001287  ( 0.033215  0.007535 -0.011250)
 16:    630.55   0.001462    7.39  0.000723  (-0.026707  0.002662  0.001746)
 17:    645.52   0.000089    0.45  0.000043  ( 0.006189  0.001144 -0.001846)
 18:    713.87   0.007144   36.11  0.003123  (-0.006106 -0.034058 -0.043885)
 19:    774.79   0.010984   55.51  0.004424  ( 0.007026  0.040365  0.052398)
 20:    867.92   0.000051    0.26  0.000018  (-0.000612 -0.002346 -0.003538)
 21:    875.76   0.000031    0.16  0.000011  (-0.002798  0.001680 -0.000674)
 22:    882.80   0.000083    0.42  0.000029  (-0.000884 -0.002923 -0.004476)
 23:    958.92   0.000030    0.15  0.000010  ( 0.000578  0.001704  0.002569)
 24:   1014.96   0.000075    0.38  0.000023  (-0.000637 -0.002880 -0.003788)
 25:   1019.59   0.008589   43.41  0.002629  (-0.006054 -0.030379 -0.040857)
 26:   1035.72   0.000327    1.65  0.000099  (-0.001203 -0.005829 -0.007946)
 27:   1041.17   0.000181    0.91  0.000054  ( 0.007290 -0.000467 -0.000884)
 28:   1052.51   0.001920    9.70  0.000569  (-0.003041 -0.014126 -0.018987)
 29:   1081.43   0.000487    2.46  0.000141  (-0.011609 -0.001046  0.002189)
 30:   1131.73   0.001774    8.96  0.000489  ( 0.008652  0.015527 -0.013159)
 31:   1171.76   0.034619  174.95  0.009220  (-0.094448 -0.004225  0.016774)
 32:   1198.15   0.002328   11.76  0.000606  (-0.024470  0.001731  0.002109)
 33:   1227.94   0.000730    3.69  0.000185  ( 0.013258 -0.003091  0.000320)
 34:   1254.32   0.000248    1.26  0.000062  ( 0.000685  0.006271 -0.004692)
 35:   1301.96   0.001709    8.63  0.000410  ( 0.019397  0.002949 -0.004960)
 36:   1349.93   0.003277   16.56  0.000758  ( 0.027325 -0.002985 -0.001402)
 37:   1370.48   0.000840    4.25  0.000191  ( 0.004531  0.010159 -0.008222)
 38:   1390.23   0.000474    2.40  0.000106  ( 0.009991  0.001048 -0.002353)
 39:   1449.61   0.000022    0.11  0.000005  (-0.000563 -0.001692  0.001203)
 40:   1523.36   0.002269   11.47  0.000465  (-0.013784 -0.012119  0.011315)
 41:   1574.07   0.000843    4.26  0.000167  ( 0.012732  0.000528 -0.002159)
 42:   1692.28   0.001721    8.70  0.000317  (-0.017180  0.004587 -0.001060)
 43:   1718.45   0.000238    1.20  0.000043  (-0.006467 -0.000332  0.001131)
 44:   1760.49   0.020912  105.68  0.003707  (-0.060448  0.005813  0.004383)
 45:   1852.56   0.112741  569.75  0.018991  (-0.130720  0.041938 -0.012031)
 46:   3002.69   0.016309   82.42  0.001695  ( 0.018132  0.028492 -0.023546)
 47:   3210.81   0.001541    7.79  0.000150  (-0.006572 -0.007856  0.006700)
 48:   3247.70   0.000608    3.07  0.000058  (-0.005395 -0.003869  0.003787)
 49:   3255.26   0.000022    0.11  0.000002  (-0.000114 -0.001123  0.000892)
 50:   3264.08   0.000888    4.49  0.000085  ( 0.004752  0.006004 -0.005126)
 51:   3268.34   0.000433    2.19  0.000041  ( 0.001063 -0.005033  0.003861)
 52:   3276.26   0.001742    8.80  0.000166  (-0.009375  0.007561 -0.004564)
 53:   3282.23   0.001019    5.15  0.000097  ( 0.007474  0.004487 -0.004572)

--------------------------
THERMOCHEMISTRY AT 298.15K
--------------------------

Temperature         ...   298.15 K
Pressure            ...     1.00 atm
Total Mass          ...   132.16 AMU
Quasi RRHO          ...     True
Cut-Off Frequency   ...     1.00 cm^-1

Throughout the following assumptions are being made:
  (1) The electronic state is orbitally nondegenerate
  (2) There are no thermally accessible electronically excited states
  (3) Hindered rotations indicated by low frequency modes are not
      treated as such but are treated as vibrations and this may
      cause some error
  (4) All equations used are the standard statistical mechanics
      equations for an ideal gas
  (5) All vibrations are strictly harmonic

freq.      17.41  E(vib)   ...       0.57
freq.     104.97  E(vib)   ...       0.46
freq.     116.00  E(vib)   ...       0.44
freq.     165.91  E(vib)   ...       0.39
freq.     309.67  E(vib)   ...       0.26
freq.     328.93  E(vib)   ...       0.24
freq.     356.24  E(vib)   ...       0.22
freq.     415.95  E(vib)   ...       0.18
freq.     516.04  E(vib)   ...       0.13
freq.     601.30  E(vib)   ...       0.10
freq.     630.55  E(vib)   ...       0.09
freq.     645.52  E(vib)   ...       0.09
freq.     713.87  E(vib)   ...       0.07
freq.     774.79  E(vib)   ...       0.05
freq.     867.92  E(vib)   ...       0.04
freq.     875.76  E(vib)   ...       0.04
freq.     882.80  E(vib)   ...       0.04
freq.     958.92  E(vib)   ...       0.03
freq.    1014.96  E(vib)   ...       0.02
freq.    1019.59  E(vib)   ...       0.02
freq.    1035.72  E(vib)   ...       0.02
freq.    1041.17  E(vib)   ...       0.02
freq.    1052.51  E(vib)   ...       0.02
freq.    1081.43  E(vib)   ...       0.02
freq.    1131.73  E(vib)   ...       0.01
freq.    1171.76  E(vib)   ...       0.01
freq.    1198.15  E(vib)   ...       0.01
freq.    1227.94  E(vib)   ...       0.01
freq.    1254.32  E(vib)   ...       0.01
freq.    1301.96  E(vib)   ...       0.01
freq.    1349.93  E(vib)   ...       0.01
freq.    1370.48  E(vib)   ...       0.01
freq.    1390.23  E(vib)   ...       0.00
freq.    1449.61  E(vib)   ...       0.00
freq.    1523.36  E(vib)   ...       0.00
freq.    1574.07  E(vib)   ...       0.00
freq.    1692.28  E(vib)   ...       0.00
freq.    1718.45  E(vib)   ...       0.00
freq.    1760.49  E(vib)   ...       0.00
freq.    1852.56  E(vib)   ...       0.00
freq.    3002.69  E(vib)   ...       0.00
freq.    3210.81  E(vib)   ...       0.00
freq.    3247.70  E(vib)   ...       0.00
freq.    3255.26  E(vib)   ...       0.00
freq.    3264.08  E(vib)   ...       0.00
freq.    3268.34  E(vib)   ...       0.00
freq.    3276.26  E(vib)   ...       0.00
freq.    3282.23  E(vib)   ...       0.00

------------
INNER ENERGY
------------

The inner energy is: U= E(el) + E(ZPE) + E(vib) + E(rot) + E(trans)
    E(el)   - is the total energy from the electronic structure calculation
              = E(kin-el) + E(nuc-el) + E(el-el) + E(nuc-nuc)
    E(ZPE)  - the the zero temperature vibrational energy from the frequency calculation
    E(vib)  - the the finite temperature correction to E(ZPE) due to population
              of excited vibrational states
    E(rot)  - is the rotational thermal energy
    E(trans)- is the translational thermal energy

Summary of contributions to the inner energy U:
Electronic energy                ...    -72.09933905 Eh
Zero point energy                ...      0.14649215 Eh      91.93 kcal/mol
Thermal vibrational correction   ...      0.00579215 Eh       3.63 kcal/mol
Thermal rotational correction    ...      0.00141627 Eh       0.89 kcal/mol
Thermal translational correction ...      0.00141627 Eh       0.89 kcal/mol
-----------------------------------------------------------------------
Total thermal energy                    -71.94422221 Eh

Summary of corrections to the electronic energy:
(perhaps to be used in another calculation)
Total thermal correction                  0.00862469 Eh       5.41 kcal/mol
Non-thermal (ZPE) correction              0.14649215 Eh      91.93 kcal/mol
-----------------------------------------------------------------------
Total correction                          0.15511685 Eh      97.34 kcal/mol

--------
ENTHALPY
--------

The enthalpy is H = U + kB*T
                kB is Boltzmann's constant
Total thermal energy              ...    -71.94422221 Eh
Thermal Enthalpy correction       ...      0.00094421 Eh       0.59 kcal/mol
-----------------------------------------------------------------------
Total Enthalpy                    ...    -71.94327800 Eh

Note: Only C1 symmetry has been detected, increase convergence thresholds
      if your molecule has a higher symmetry. Symmetry factor of 1.0 is
      used for the rotational entropy correction.

Note: Rotational entropy computed according to Herzberg
Infrared and Raman Spectra, Chapter V,1, Van Nostrand Reinhold, 1945
Point Group:  C1, Symmetry Number:   1
Rotational constants in cm-1:     0.165407     0.019517     0.017458

Vibrational entropy computed according to the QRRHO of S. Grimme
Chem.Eur.J. 2012 18 9955 using a reference frequency of 100.0 cm-1

-------
ENTROPY
-------

The entropy contributions are T*S = T*(S(el)+S(vib)+S(rot)+S(trans))
     S(el)   - electronic entropy
     S(vib)  - vibrational entropy
     S(rot)  - rotational entropy
     S(trans)- translational entropy
The entropies will be listed as multiplied by the temperature to get
units of energy

Electronic entropy                ...      0.00000000 Eh      0.00 kcal/mol
Vibrational entropy               ...      0.01027493 Eh      6.45 kcal/mol
Rotational entropy                ...      0.01412965 Eh      8.87 kcal/mol
Translational entropy             ...      0.01926618 Eh     12.09 kcal/mol
-----------------------------------------------------------------------
Final entropy term                ...      0.04367076 Eh     27.40 kcal/mol

In case the symmetry of your molecule has not been determined correctly
or in case you have a reason to use a different symmetry number we print
out the resulting rotational entropy values for sn=1,12:

 non-linear molecules -----------------------------------
|  sn= 1 | S(rot)=       0.01412965 Eh      8.87 kcal/mol|
|  sn= 2 | S(rot)=       0.01347519 Eh      8.46 kcal/mol|
|  sn= 3 | S(rot)=       0.01309236 Eh      8.22 kcal/mol|
|  sn= 4 | S(rot)=       0.01282074 Eh      8.05 kcal/mol|
|  sn= 5 | S(rot)=       0.01261005 Eh      7.91 kcal/mol|
|  sn= 6 | S(rot)=       0.01243790 Eh      7.80 kcal/mol|
|  sn= 7 | S(rot)=       0.01229236 Eh      7.71 kcal/mol|
|  sn= 8 | S(rot)=       0.01216628 Eh      7.63 kcal/mol|
|  sn= 9 | S(rot)=       0.01205507 Eh      7.56 kcal/mol|
|  sn=10 | S(rot)=       0.01195559 Eh      7.50 kcal/mol|
|  sn=11 | S(rot)=       0.01186560 Eh      7.45 kcal/mol|
|  sn=12 | S(rot)=       0.01178345 Eh      7.39 kcal/mol|

                             ****ORCA TERMINATED NORMALLY****
TOTAL RUN TIME: 0 days 0 hours 11 minutes 28 seconds 403 msec
