                         Program Version 6.0.1  -  RELEASE   -
|  1> ! wB97X-3c OPT FREQ TightSCF
|  2> %pal
|  3>   nprocs 40
|  4> end
|  5> * xyz 0 1
|  6> C      1.453772    -1.298021    -0.690465
|  7> C      0.761325    -0.112602     0.046909
|  8> C      0.434189     1.089945    -0.870906
|  9> C     -0.605550     0.492374    -1.858980
| 10> C     -1.410189    -0.486028    -0.967146
| 11> C     -0.722973    -0.332129     0.410949
| 12> C     -1.103062     1.051031     0.878168
| 13> O     -1.945533     1.317796     1.721161
| 14> C     -0.350939     2.055176     0.060550
| 15> C     -1.023250    -1.457490     1.407657
| 16> C      1.680469     0.254133     1.253327
| 17> H      1.610304    -2.146060     0.009506
| 18> H      2.447337    -0.973716    -1.067176
| 19> H      0.892360    -1.700057    -1.553491
| 20> H      1.311524     1.557287    -1.367419
| 21> H     -0.104140    -0.038287    -2.695999
| 22> H     -1.263038     1.273885    -2.299005
| 23> H     -2.485657    -0.201422    -0.925053
| 24> H     -1.343330    -1.527547    -1.348577
| 25> H     -1.039990     2.726228    -0.496472
| 26> H      0.329116     2.664515     0.692158
| 27> H     -2.117473    -1.523403     1.585771
| 28> H     -0.516937    -1.263811     2.376575
| 29> H     -0.672703    -2.431480     1.007027
| 30> H      1.233083     0.981874     1.958997
| 31> H      1.914856    -0.653099     1.850197
| 32> H      2.636427     0.680909     0.881739
| 33> *
| 34>
| 35>                          ****END OF INPUT****
 Total Charge           Charge          ....    0
 Multiplicity           Mult            ....    1
 Number of Electrons    NEL             ....   62
Dispersion correction           -0.036226449
FINAL SINGLE POINT ENERGY       -82.694089566151
Dispersion correction             ... done (  0.1 sec)
Dispersion correction           -0.036736929
FINAL SINGLE POINT ENERGY       -82.703571205897
Dispersion correction             ... done (  0.1 sec)
Dispersion correction           -0.036796663
FINAL SINGLE POINT ENERGY       -82.704259208162
Dispersion correction             ... done (  0.1 sec)
FINAL SINGLE POINT ENERGY       -82.704416401497
FINAL SINGLE POINT ENERGY       -82.704443937190
Dispersion correction             ... done (  0.1 sec)
Dispersion correction           -0.036758001
FINAL SINGLE POINT ENERGY       -82.704453738124
Dispersion correction             ... done (  0.1 sec)
Dispersion correction           -0.036758972
FINAL SINGLE POINT ENERGY       -82.704455402178
Dispersion correction             ... done (  0.1 sec)
                    ***********************HURRAY********************

CARTESIAN COORDINATES (ANGSTROEM)
---------------------------------
  C      1.440875   -1.266660   -0.683708
  C      0.778017   -0.103464    0.037172
  C      0.441184    1.088779   -0.889140
  C     -0.576563    0.483115   -1.859435
  C     -1.386260   -0.467546   -0.954406
  C     -0.700973   -0.360051    0.426618
  C     -1.101923    1.026633    0.899321
  O     -1.877301    1.292322    1.777538
  C     -0.341269    2.017968    0.036028
  C     -1.027232   -1.464037    1.392571
  C      1.654153    0.267020    1.227860
  H      1.589153   -2.103744   -0.001869
  H      2.424280   -0.966784   -1.048158
  H      0.872974   -1.632558   -1.534145
  H      1.300914    1.554198   -1.369390
  H     -0.089171   -0.053677   -2.670787
  H     -1.197415    1.251801   -2.317493
  H     -2.441384   -0.201921   -0.893847
  H     -1.343448   -1.498362   -1.303201
  H     -1.032128    2.682359   -0.481177
  H      0.290041    2.638028    0.670066
  H     -2.096084   -1.481385    1.599848
  H     -0.517990   -1.321444    2.344387
  H     -0.741732   -2.434249    0.987623
  H      1.206299    1.008452    1.886179
  H      1.860139   -0.614335    1.834319
  H      2.612845    0.659542    0.887229

 Multiplicity           Mult            ....    1
 Number of Electrons    NEL             ....   62
 Basis Dimension        Dim             ....  223

ORBITAL ENERGIES
----------------

  NO   OCC          E(Eh)            E(eV)
   0   2.0000      -1.169511       -31.8240
   1   2.0000      -1.041879       -28.3510
   2   2.0000      -0.916542       -24.9404
   3   2.0000      -0.910036       -24.7633
   4   2.0000      -0.881366       -23.9832
   5   2.0000      -0.822141       -22.3716
   6   2.0000      -0.805199       -21.9106
   7   2.0000      -0.777815       -21.1654
   8   2.0000      -0.716412       -19.4946
   9   2.0000      -0.669921       -18.2295
  10   2.0000      -0.626135       -17.0380
  11   2.0000      -0.611374       -16.6363
  12   2.0000      -0.609108       -16.5747
  13   2.0000      -0.589147       -16.0315
  14   2.0000      -0.565193       -15.3797
  15   2.0000      -0.541301       -14.7295
  16   2.0000      -0.528711       -14.3870
  17   2.0000      -0.522456       -14.2167
  18   2.0000      -0.515286       -14.0216
  19   2.0000      -0.509921       -13.8757
  20   2.0000      -0.499471       -13.5913
  21   2.0000      -0.493832       -13.4379
  22   2.0000      -0.485082       -13.1998
  23   2.0000      -0.471085       -12.8189
  24   2.0000      -0.455931       -12.4065
  25   2.0000      -0.452549       -12.3145
  26   2.0000      -0.442469       -12.0402
  27   2.0000      -0.429298       -11.6818
  28   2.0000      -0.419086       -11.4039
  29   2.0000      -0.401862       -10.9352
  30   2.0000      -0.342464        -9.3189
  31   0.0000       0.067410         1.8343
  32   0.0000       0.085000         2.3130
  33   0.0000       0.096141         2.6161
  34   0.0000       0.100224         2.7272
  35   0.0000       0.105033         2.8581

MULLIKEN ATOMIC CHARGES
-----------------------
   0 C :   -0.002003
   1 C :   -0.194063
   2 C :   -0.018559
   3 C :   -0.032576
   4 C :   -0.014965
   5 C :   -0.187530
   6 C :    0.222159
   7 O :   -0.298041
   8 C :   -0.044476
   9 C :    0.004955
  10 C :   -0.009615
  11 H :    0.029032
  12 H :    0.032498
  13 H :    0.014972
  14 H :    0.038226
  15 H :    0.036032
  16 H :    0.032918
  17 H :    0.050276
  18 H :    0.037846
  19 H :    0.051328
  20 H :    0.054523
  21 H :    0.044495
  22 H :    0.033487
  23 H :    0.025829
  24 H :    0.032166
  25 H :    0.028848
  26 H :    0.032238
Sum of atomic charges:    0.0000000

LOEWDIN ATOMIC CHARGES
----------------------
   0 C :   -0.096425
   1 C :   -0.059621
   2 C :   -0.044160
   3 C :   -0.064914
   4 C :   -0.049086
   5 C :   -0.068596
   6 C :    0.013030
   7 O :   -0.120952
   8 C :   -0.057941
   9 C :   -0.097315
  10 C :   -0.096925
  11 H :    0.046362
  12 H :    0.048807
  13 H :    0.041338
  14 H :    0.039540
  15 H :    0.039644
  16 H :    0.041206
  17 H :    0.046079
  18 H :    0.043820
  19 H :    0.053549
  20 H :    0.053928
  21 H :    0.054955
  22 H :    0.049522
  23 H :    0.044214
  24 H :    0.045059
  25 H :    0.047276
  26 H :    0.047604

  Mayer bond orders larger than 0.100000
B(  0-C ,  1-C ) :   1.0249 B(  0-C , 11-H ) :   0.9887 B(  0-C , 12-H ) :   0.9873
B(  0-C , 13-H ) :   0.9895 B(  1-C ,  2-C ) :   0.9690 B(  1-C ,  5-C ) :   0.9549
B(  1-C , 10-C ) :   1.0247 B(  2-C ,  3-C ) :   0.9925 B(  2-C ,  8-C ) :   0.9877
B(  2-C , 14-H ) :   0.9982 B(  3-C ,  4-C ) :   0.9776 B(  3-C , 15-H ) :   1.0021
B(  3-C , 16-H ) :   0.9992 B(  4-C ,  5-C ) :   0.9726 B(  4-C , 17-H ) :   0.9932
B(  4-C , 18-H ) :   0.9962 B(  5-C ,  6-C ) :   0.9979 B(  5-C ,  9-C ) :   1.0393
B(  6-C ,  7-O ) :   1.9633 B(  6-C ,  8-C ) :   1.0058 B(  8-C , 19-H ) :   0.9783
B(  8-C , 20-H ) :   0.9762 B(  9-C , 21-H ) :   0.9778 B(  9-C , 22-H ) :   0.9823
B(  9-C , 23-H ) :   0.9850 B( 10-C , 24-H ) :   0.9846 B( 10-C , 25-H ) :   0.9893
B( 10-C , 26-H ) :   0.9870

Dispersion correction           -0.036759351
FINAL SINGLE POINT ENERGY       -82.704455863921

DIPOLE MOMENT
-------------

Method             : SCF
Type of density    : Electron Density
Multiplicity       :   1
Irrep              :   0
Energy             :   -82.6676965130592833 Eh
Relativity type    :
Basis              : AO
                                X                 Y                 Z
Electronic contribution:     -5.369856758       5.765105479       1.736766253
Nuclear contribution   :      6.215916191      -6.118617331      -2.685027120
                        -----------------------------------------
Total Dipole Moment    :      0.846059433      -0.353511852      -0.948260867
                        -----------------------------------------
Magnitude (a.u.)       :      1.319085238
Magnitude (Debye)      :      3.352848220

VIBRATIONAL FREQUENCIES
-----------------------

Scaling factor for frequencies =  1.000000000  (already applied!)

     0:       0.00 cm**-1
     1:       0.00 cm**-1
     2:       0.00 cm**-1
     3:       0.00 cm**-1
     4:       0.00 cm**-1
     5:       0.00 cm**-1
     6:     109.68 cm**-1
     7:     167.91 cm**-1
     8:     192.67 cm**-1
     9:     227.14 cm**-1
    10:     230.11 cm**-1
    11:     249.43 cm**-1
    12:     269.24 cm**-1
    13:     302.49 cm**-1
    14:     307.83 cm**-1
    15:     394.41 cm**-1
    16:     405.99 cm**-1
    17:     428.67 cm**-1
    18:     490.05 cm**-1
    19:     538.72 cm**-1
    20:     574.65 cm**-1
    21:     593.87 cm**-1
    22:     635.90 cm**-1
    23:     674.63 cm**-1
    24:     743.63 cm**-1
    25:     789.35 cm**-1
    26:     862.73 cm**-1
    27:     896.56 cm**-1
    28:     910.49 cm**-1
    29:     960.20 cm**-1
    30:     968.85 cm**-1
    31:     984.84 cm**-1
    32:     988.47 cm**-1
    33:    1000.28 cm**-1
    34:    1032.87 cm**-1
    35:    1056.57 cm**-1
    36:    1071.95 cm**-1
    37:    1105.79 cm**-1
    38:    1128.91 cm**-1
    39:    1146.53 cm**-1
    40:    1194.97 cm**-1
    41:    1221.70 cm**-1
    42:    1223.83 cm**-1
    43:    1257.83 cm**-1
    44:    1259.13 cm**-1
    45:    1291.65 cm**-1
    46:    1311.03 cm**-1
    47:    1325.12 cm**-1
    48:    1354.94 cm**-1
    49:    1365.48 cm**-1
    50:    1376.63 cm**-1
    51:    1403.38 cm**-1
    52:    1442.50 cm**-1
    53:    1452.78 cm**-1
    54:    1460.33 cm**-1
    55:    1491.87 cm**-1
    56:    1511.33 cm**-1
    57:    1515.84 cm**-1
    58:    1519.65 cm**-1
    59:    1526.06 cm**-1
    60:    1532.79 cm**-1
    61:    1544.96 cm**-1
    62:    1549.21 cm**-1
    63:    1560.68 cm**-1
    64:    1898.32 cm**-1
    65:    3101.67 cm**-1
    66:    3105.44 cm**-1
    67:    3107.70 cm**-1
    68:    3123.37 cm**-1
    69:    3134.44 cm**-1
    70:    3138.13 cm**-1
    71:    3158.76 cm**-1
    72:    3173.52 cm**-1
    73:    3182.02 cm**-1
    74:    3187.22 cm**-1
    75:    3188.49 cm**-1
    76:    3195.97 cm**-1
    77:    3199.15 cm**-1
    78:    3202.54 cm**-1
    79:    3205.56 cm**-1
    80:    3220.72 cm**-1

IR SPECTRUM
-----------

 Mode   freq       eps      Int      T**2         TX        TY        TZ
       cm**-1   L/(mol*cm) km/mol    a.u.
----------------------------------------------------------------------------
  6:    109.68   0.000873    4.41  0.002485  ( 0.037945 -0.000571  0.032326)
  7:    167.91   0.000034    0.17  0.000064  (-0.007735  0.001626 -0.001203)
  8:    192.67   0.000016    0.08  0.000025  (-0.004575 -0.002009 -0.000403)
  9:    227.14   0.000062    0.31  0.000085  ( 0.007328 -0.005609  0.000246)
 10:    230.11   0.000056    0.28  0.000076  (-0.001167  0.006476 -0.005726)
 11:    249.43   0.000163    0.82  0.000204  (-0.002356  0.013578 -0.003743)
 12:    269.24   0.000157    0.79  0.000182  (-0.003014  0.011684 -0.006016)
 13:    302.49   0.000170    0.86  0.000176  (-0.001160  0.012466  0.004332)
 14:    307.83   0.000346    1.75  0.000350  ( 0.001858  0.018462  0.002462)
 15:    394.41   0.000183    0.92  0.000145  ( 0.004843 -0.010871 -0.001765)
 16:    405.99   0.000024    0.12  0.000018  ( 0.001467 -0.000731 -0.003973)
 17:    428.67   0.000259    1.31  0.000189  (-0.007330 -0.011585 -0.000871)
 18:    490.05   0.000182    0.92  0.000116  ( 0.008267 -0.006244  0.002900)
 19:    538.72   0.001113    5.62  0.000644  (-0.006789 -0.023083  0.008097)
 20:    574.65   0.000425    2.15  0.000231  (-0.011194  0.005892  0.008411)
 21:    593.87   0.000186    0.94  0.000098  ( 0.003990 -0.005466  0.007217)
 22:    635.90   0.000171    0.86  0.000084  ( 0.001943  0.005940  0.006682)
 23:    674.63   0.000395    2.00  0.000183  (-0.002552  0.012127  0.005415)
 24:    743.63   0.000136    0.69  0.000057  ( 0.007466  0.001088 -0.000163)
 25:    789.35   0.001399    7.07  0.000553  (-0.013351  0.017516  0.008247)
 26:    862.73   0.000036    0.18  0.000013  (-0.002072  0.001925 -0.002229)
 27:    896.56   0.000452    2.28  0.000157  ( 0.006472  0.010126 -0.003589)
 28:    910.49   0.000067    0.34  0.000023  (-0.003510  0.000393 -0.003261)
 29:    960.20   0.000108    0.55  0.000035  ( 0.005123 -0.002841 -0.000861)
 30:    968.85   0.000450    2.27  0.000145  ( 0.001866 -0.000604  0.011879)
 31:    984.84   0.000770    3.89  0.000244  (-0.005000  0.000082 -0.014793)
 32:    988.47   0.000076    0.38  0.000024  (-0.002801  0.002309 -0.003290)
 33:   1000.28   0.000649    3.28  0.000202  ( 0.004158  0.013196  0.003305)
 34:   1032.87   0.000178    0.90  0.000054  ( 0.002545  0.000046  0.006883)
 35:   1056.57   0.000533    2.69  0.000157  ( 0.002052 -0.012377  0.000150)
 36:   1071.95   0.000747    3.77  0.000217  (-0.003966  0.013178 -0.005294)
 37:   1105.79   0.006169   31.18  0.001741  ( 0.007647  0.040812 -0.004115)
 38:   1128.91   0.000870    4.39  0.000240  ( 0.008177  0.012845 -0.002922)
 39:   1146.53   0.001227    6.20  0.000334  (-0.013049  0.012659  0.001836)
 40:   1194.97   0.000421    2.13  0.000110  (-0.006574  0.005667 -0.005893)
 41:   1221.70   0.000510    2.58  0.000130  ( 0.009768 -0.000819 -0.005848)
 42:   1223.83   0.000293    1.48  0.000075  ( 0.003645 -0.007768 -0.001072)
 43:   1257.83   0.000517    2.61  0.000128  (-0.004670  0.010314 -0.000089)
 44:   1259.13   0.000347    1.75  0.000086  (-0.001223  0.006447 -0.006546)
 45:   1291.65   0.000135    0.68  0.000033  (-0.004468 -0.003489  0.000706)
 46:   1311.03   0.000101    0.51  0.000024  (-0.000495 -0.004435 -0.002039)
 47:   1325.12   0.000759    3.84  0.000179  (-0.002645 -0.013101 -0.000462)
 48:   1354.94   0.001975    9.98  0.000455  (-0.004469 -0.020449  0.004081)
 49:   1365.48   0.000206    1.04  0.000047  ( 0.001022 -0.004437  0.005141)
 50:   1376.63   0.000510    2.57  0.000116  (-0.007353  0.007260 -0.002956)
 51:   1403.38   0.002416   12.21  0.000537  (-0.013815 -0.018400  0.002807)
 52:   1442.50   0.002326   11.76  0.000503  (-0.002200  0.015984  0.015585)
 53:   1452.78   0.001393    7.04  0.000299  ( 0.014730  0.000521 -0.009053)
 54:   1460.33   0.003342   16.89  0.000714  (-0.017557  0.016040 -0.012192)
 55:   1491.87   0.003179   16.06  0.000665  (-0.003432 -0.025554 -0.000296)
 56:   1511.33   0.001200    6.07  0.000248  (-0.002396 -0.003721  0.015109)
 57:   1515.84   0.002261   11.42  0.000465  (-0.013124 -0.015185 -0.007909)
 58:   1519.65   0.002089   10.56  0.000429  (-0.007380  0.018723  0.004894)
 59:   1526.06   0.001310    6.62  0.000268  ( 0.011122  0.006038 -0.010376)
 60:   1532.79   0.000894    4.52  0.000182  (-0.005080 -0.012285  0.002280)
 61:   1544.96   0.000142    0.72  0.000029  (-0.003332  0.004184 -0.000328)
 62:   1549.21   0.001633    8.25  0.000329  (-0.001173  0.000028 -0.018099)
 63:   1560.68   0.002078   10.50  0.000416  (-0.015773 -0.004157 -0.012229)
 64:   1898.32   0.057056  288.34  0.009379  ( 0.060998 -0.024492 -0.071126)
 65:   3101.67   0.003980   20.11  0.000400  (-0.006635 -0.010759 -0.015511)
 66:   3105.44   0.004729   23.90  0.000475  ( 0.020889  0.001507 -0.006047)
 67:   3107.70   0.007541   38.11  0.000757  (-0.012990  0.021830 -0.010579)
 68:   3123.37   0.004701   23.76  0.000470  (-0.012424 -0.016006  0.007693)
 69:   3134.44   0.007438   37.59  0.000741  ( 0.014200  0.005163  0.022633)
 70:   3138.13   0.001966    9.93  0.000195  (-0.006500  0.009539  0.007889)
 71:   3158.76   0.006612   33.41  0.000653  (-0.014446 -0.014339  0.015456)
 72:   3173.52   0.000136    0.69  0.000013  ( 0.000453  0.002883 -0.002197)
 73:   3182.02   0.000699    3.53  0.000069  ( 0.004299  0.004590 -0.005386)
 74:   3187.22   0.004935   24.94  0.000483  ( 0.012301  0.013632 -0.012086)
 75:   3188.49   0.003659   18.49  0.000358  ( 0.011656 -0.014418 -0.003790)
 76:   3195.97   0.002944   14.88  0.000287  (-0.013107  0.010620 -0.001682)
 77:   3199.15   0.002559   12.93  0.000250  ( 0.005682 -0.011233 -0.009546)
 78:   3202.54   0.001878    9.49  0.000183  ( 0.009029  0.003057  0.009600)
 79:   3205.56   0.001952    9.87  0.000190  ( 0.008158 -0.009471 -0.005814)
 80:   3220.72   0.003242   16.38  0.000314  ( 0.009087  0.004966  0.014382)

--------------------------
THERMOCHEMISTRY AT 298.15K
--------------------------

Temperature         ...   298.15 K
Pressure            ...     1.00 atm
Total Mass          ...   152.24 AMU
Quasi RRHO          ...     True
Cut-Off Frequency   ...     1.00 cm^-1

Throughout the following assumptions are being made:
  (1) The electronic state is orbitally nondegenerate
  (2) There are no thermally accessible electronically excited states
  (3) Hindered rotations indicated by low frequency modes are not
      treated as such but are treated as vibrations and this may
      cause some error
  (4) All equations used are the standard statistical mechanics
      equations for an ideal gas
  (5) All vibrations are strictly harmonic

freq.     109.68  E(vib)   ...       0.45
freq.     167.91  E(vib)   ...       0.38
freq.     192.67  E(vib)   ...       0.36
freq.     227.14  E(vib)   ...       0.33
freq.     230.11  E(vib)   ...       0.32
freq.     249.43  E(vib)   ...       0.31
freq.     269.24  E(vib)   ...       0.29
freq.     302.49  E(vib)   ...       0.26
freq.     307.83  E(vib)   ...       0.26
freq.     394.41  E(vib)   ...       0.20
freq.     405.99  E(vib)   ...       0.19
freq.     428.67  E(vib)   ...       0.18
freq.     490.05  E(vib)   ...       0.15
freq.     538.72  E(vib)   ...       0.12
freq.     574.65  E(vib)   ...       0.11
freq.     593.87  E(vib)   ...       0.10
freq.     635.90  E(vib)   ...       0.09
freq.     674.63  E(vib)   ...       0.08
freq.     743.63  E(vib)   ...       0.06
freq.     789.35  E(vib)   ...       0.05
freq.     862.73  E(vib)   ...       0.04
freq.     896.56  E(vib)   ...       0.03
freq.     910.49  E(vib)   ...       0.03
freq.     960.20  E(vib)   ...       0.03
freq.     968.85  E(vib)   ...       0.03
freq.     984.84  E(vib)   ...       0.02
freq.     988.47  E(vib)   ...       0.02
freq.    1000.28  E(vib)   ...       0.02
freq.    1032.87  E(vib)   ...       0.02
freq.    1056.57  E(vib)   ...       0.02
freq.    1071.95  E(vib)   ...       0.02
freq.    1105.79  E(vib)   ...       0.02
freq.    1128.91  E(vib)   ...       0.01
freq.    1146.53  E(vib)   ...       0.01
freq.    1194.97  E(vib)   ...       0.01
freq.    1221.70  E(vib)   ...       0.01
freq.    1223.83  E(vib)   ...       0.01
freq.    1257.83  E(vib)   ...       0.01
freq.    1259.13  E(vib)   ...       0.01
freq.    1291.65  E(vib)   ...       0.01
freq.    1311.03  E(vib)   ...       0.01
freq.    1325.12  E(vib)   ...       0.01
freq.    1354.94  E(vib)   ...       0.01
freq.    1365.48  E(vib)   ...       0.01
freq.    1376.63  E(vib)   ...       0.01
freq.    1403.38  E(vib)   ...       0.00
freq.    1442.50  E(vib)   ...       0.00
freq.    1452.78  E(vib)   ...       0.00
freq.    1460.33  E(vib)   ...       0.00
freq.    1491.87  E(vib)   ...       0.00
freq.    1511.33  E(vib)   ...       0.00
freq.    1515.84  E(vib)   ...       0.00
freq.    1519.65  E(vib)   ...       0.00
freq.    1526.06  E(vib)   ...       0.00
freq.    1532.79  E(vib)   ...       0.00
freq.    1544.96  E(vib)   ...       0.00
freq.    1549.21  E(vib)   ...       0.00
freq.    1560.68  E(vib)   ...       0.00
freq.    1898.32  E(vib)   ...       0.00
freq.    3101.67  E(vib)   ...       0.00
freq.    3105.44  E(vib)   ...       0.00
freq.    3107.70  E(vib)   ...       0.00
freq.    3123.37  E(vib)   ...       0.00
freq.    3134.44  E(vib)   ...       0.00
freq.    3138.13  E(vib)   ...       0.00
freq.    3158.76  E(vib)   ...       0.00
freq.    3173.52  E(vib)   ...       0.00
freq.    3182.02  E(vib)   ...       0.00
freq.    3187.22  E(vib)   ...       0.00
freq.    3188.49  E(vib)   ...       0.00
freq.    3195.97  E(vib)   ...       0.00
freq.    3199.15  E(vib)   ...       0.00
freq.    3202.54  E(vib)   ...       0.00
freq.    3205.56  E(vib)   ...       0.00
freq.    3220.72  E(vib)   ...       0.00

------------
INNER ENERGY
------------

The inner energy is: U= E(el) + E(ZPE) + E(vib) + E(rot) + E(trans)
    E(el)   - is the total energy from the electronic structure calculation
              = E(kin-el) + E(nuc-el) + E(el-el) + E(nuc-nuc)
    E(ZPE)  - the the zero temperature vibrational energy from the frequency calculation
    E(vib)  - the the finite temperature correction to E(ZPE) due to population
              of excited vibrational states
    E(rot)  - is the rotational thermal energy
    E(trans)- is the translational thermal energy

Summary of contributions to the inner energy U:
Electronic energy                ...    -82.70445586 Eh
Zero point energy                ...      0.24754134 Eh     155.33 kcal/mol
Thermal vibrational correction   ...      0.00754353 Eh       4.73 kcal/mol
Thermal rotational correction    ...      0.00141627 Eh       0.89 kcal/mol
Thermal translational correction ...      0.00141627 Eh       0.89 kcal/mol
-----------------------------------------------------------------------
Total thermal energy                    -82.44653845 Eh

Summary of corrections to the electronic energy:
(perhaps to be used in another calculation)
Total thermal correction                  0.01037607 Eh       6.51 kcal/mol
Non-thermal (ZPE) correction              0.24754134 Eh     155.33 kcal/mol
-----------------------------------------------------------------------
Total correction                          0.25791741 Eh     161.85 kcal/mol

--------
ENTHALPY
--------

The enthalpy is H = U + kB*T
                kB is Boltzmann's constant
Total thermal energy              ...    -82.44653845 Eh
Thermal Enthalpy correction       ...      0.00094421 Eh       0.59 kcal/mol
-----------------------------------------------------------------------
Total Enthalpy                    ...    -82.44559424 Eh

Note: Only C1 symmetry has been detected, increase convergence thresholds
      if your molecule has a higher symmetry. Symmetry factor of 1.0 is
      used for the rotational entropy correction.

Note: Rotational entropy computed according to Herzberg
Infrared and Raman Spectra, Chapter V,1, Van Nostrand Reinhold, 1945
Point Group:  C1, Symmetry Number:   1
Rotational constants in cm-1:     0.048990     0.040007     0.037105

Vibrational entropy computed according to the QRRHO of S. Grimme
Chem.Eur.J. 2012 18 9955 using a reference frequency of 100.0 cm-1

-------
ENTROPY
-------

The entropy contributions are T*S = T*(S(el)+S(vib)+S(rot)+S(trans))
     S(el)   - electronic entropy
     S(vib)  - vibrational entropy
     S(rot)  - rotational entropy
     S(trans)- translational entropy

                             ****ORCA TERMINATED NORMALLY****
TOTAL RUN TIME: 0 days 0 hours 11 minutes 28 seconds 911 msec
