                         Program Version 6.0.1  -  RELEASE   -
|  1> ! wB97X-3c OPT FREQ TightSCF
|  2> %pal
|  3>   nprocs 40
|  4> end
|  5> * xyz 0 1
|  6> C     -2.900673    -1.541685    -0.814697
|  7> C     -2.107005    -0.236168    -0.701197
|  8> C     -2.381626     0.457692     0.640988
|  9> C     -1.481041     1.690135     0.782867
| 10> O     -0.113948     1.330910     0.705022
| 11> C      0.188064     0.803408    -0.576118
| 12> C     -0.599711    -0.492993    -0.856458
| 13> C      1.676941     0.563967    -0.718811
| 14> C      2.493691     0.003693     0.206345
| 15> C      3.943877    -0.194706    -0.156853
| 16> C      2.023195    -0.397511     1.586238
| 17> H     -2.710502    -2.018573    -1.799817
| 18> H     -3.988927    -1.334160    -0.732937
| 19> H     -2.609598    -2.251214    -0.010426
| 20> H     -2.438027     0.438668    -1.522906
| 21> H     -2.176443    -0.240014     1.483162
| 22> H     -3.446813     0.771507     0.694483
| 23> H     -1.665584     2.148817     1.776967
| 24> H     -1.738946     2.457920     0.018060
| 25> H     -0.081495     1.549063    -1.361061
| 26> H     -0.389428    -0.837562    -1.893118
| 27> H     -0.285776    -1.297158    -0.159731
| 28> H      2.112099     0.860774    -1.670740
| 29> H      4.404317     0.782999    -0.413520
| 30> H      4.021096    -0.873059    -1.032905
| 31> H      4.523331    -0.639734     0.678559
| 32> H      1.164336    -1.093068     1.528970
| 33> H      2.825493    -0.915210     2.151650
| 34> H      1.739106     0.503265     2.167983
| 35> *
| 36>
| 37>                          ****END OF INPUT****
 Total Charge           Charge          ....    0
 Multiplicity           Mult            ....    1
 Number of Electrons    NEL             ....   64
Dispersion correction           -0.032732719
FINAL SINGLE POINT ENERGY       -83.873644190171
Dispersion correction             ... done (  0.1 sec)
Dispersion correction           -0.032917190
FINAL SINGLE POINT ENERGY       -83.881341707675
Dispersion correction             ... done (  0.1 sec)
Dispersion correction           -0.032950577
FINAL SINGLE POINT ENERGY       -83.882099676605
Dispersion correction             ... done (  0.1 sec)
FINAL SINGLE POINT ENERGY       -83.882541674043
FINAL SINGLE POINT ENERGY       -83.882960708776
FINAL SINGLE POINT ENERGY       -83.883519875563
FINAL SINGLE POINT ENERGY       -83.884291565789
FINAL SINGLE POINT ENERGY       -83.885046988710
FINAL SINGLE POINT ENERGY       -83.885530211112
FINAL SINGLE POINT ENERGY       -83.886451208022
FINAL SINGLE POINT ENERGY       -83.887358241801
FINAL SINGLE POINT ENERGY       -83.888054947182
FINAL SINGLE POINT ENERGY       -83.888246706576
FINAL SINGLE POINT ENERGY       -83.888312691764
FINAL SINGLE POINT ENERGY       -83.888327628525
FINAL SINGLE POINT ENERGY       -83.888333690611
Dispersion correction             ... done (  0.1 sec)
Dispersion correction           -0.032897761
FINAL SINGLE POINT ENERGY       -83.888335609417
Dispersion correction             ... done (  0.1 sec)
Dispersion correction           -0.032891232
FINAL SINGLE POINT ENERGY       -83.888336706813
Dispersion correction             ... done (  0.1 sec)
                    ***********************HURRAY********************

CARTESIAN COORDINATES (ANGSTROEM)
---------------------------------
  C     -2.909827   -1.519705   -0.893779
  C     -2.119868   -0.238692   -0.712811
  C     -2.409216    0.427925    0.622817
  C     -1.530870    1.645136    0.815942
  O     -0.165321    1.325877    0.710550
  C      0.168835    0.797106   -0.558671
  C     -0.622107   -0.474787   -0.834254
  C      1.650040    0.590214   -0.681566
  C      2.482610    0.042301    0.197319
  C      3.940519   -0.089797   -0.121550
  C      2.096768   -0.479635    1.545407
  H     -2.708625   -1.974304   -1.863938
  H     -3.982328   -1.336305   -0.825367
  H     -2.646692   -2.247538   -0.124630
  H     -2.412615    0.461373   -1.504287
  H     -2.219127   -0.280789    1.433606
  H     -3.459286    0.720599    0.688045
  H     -1.668520    2.081759    1.803520
  H     -1.785785    2.412341    0.072134
  H     -0.121767    1.542729   -1.312661
  H     -0.370833   -0.843193   -1.830629
  H     -0.306850   -1.242332   -0.122772
  H      2.066343    0.913579   -1.629266
  H      4.176531    0.289979   -1.113143
  H      4.252405   -1.134172   -0.069503
  H      4.542751    0.456562    0.606137
  H      1.038342   -0.374667    1.750107
  H      2.381324   -1.529925    1.631091
  H      2.643170    0.058363    2.322151

 Multiplicity           Mult            ....    1
 Number of Electrons    NEL             ....   64
 Basis Dimension        Dim             ....  233

ORBITAL ENERGIES
----------------

  NO   OCC          E(Eh)            E(eV)
   0   2.0000      -1.162977       -31.6462
   1   2.0000      -0.959771       -26.1167
   2   2.0000      -0.953879       -25.9564
   3   2.0000      -0.904966       -24.6254
   4   2.0000      -0.845509       -23.0075
   5   2.0000      -0.821072       -22.3425
   6   2.0000      -0.812094       -22.0982
   7   2.0000      -0.761581       -20.7237
   8   2.0000      -0.731029       -19.8923
   9   2.0000      -0.691733       -18.8230
  10   2.0000      -0.637703       -17.3528
  11   2.0000      -0.605737       -16.4830
  12   2.0000      -0.591477       -16.0949
  13   2.0000      -0.576327       -15.6827
  14   2.0000      -0.570604       -15.5269
  15   2.0000      -0.558513       -15.1979
  16   2.0000      -0.541932       -14.7467
  17   2.0000      -0.537303       -14.6208
  18   2.0000      -0.525887       -14.3101
  19   2.0000      -0.497479       -13.5371
  20   2.0000      -0.487972       -13.2784
  21   2.0000      -0.483764       -13.1639
  22   2.0000      -0.478909       -13.0318
  23   2.0000      -0.476285       -12.9604
  24   2.0000      -0.469760       -12.7828
  25   2.0000      -0.454315       -12.3625
  26   2.0000      -0.444859       -12.1052
  27   2.0000      -0.431217       -11.7340
  28   2.0000      -0.413232       -11.2446
  29   2.0000      -0.397800       -10.8247
  30   2.0000      -0.359119        -9.7721
  31   2.0000      -0.330641        -8.9972
  32   0.0000       0.088901         2.4191
  33   0.0000       0.090582         2.4649
  34   0.0000       0.094696         2.5768
  35   0.0000       0.098000         2.6667
  36   0.0000       0.105592         2.8733

MULLIKEN ATOMIC CHARGES
-----------------------
   0 C :   -0.043493
   1 C :   -0.099697
   2 C :   -0.032500
   3 C :    0.122267
   4 O :   -0.349293
   5 C :    0.034550
   6 C :   -0.005818
   7 C :   -0.004539
   8 C :   -0.056457
   9 C :   -0.047741
  10 C :   -0.041298
  11 H :    0.028006
  12 H :    0.027207
  13 H :    0.028212
  14 H :    0.028606
  15 H :    0.027241
  16 H :    0.034161
  17 H :    0.038986
  18 H :    0.011611
  19 H :    0.023025
  20 H :    0.040695
  21 H :    0.022920
  22 H :    0.007525
  23 H :    0.024533
  24 H :    0.034360
  25 H :    0.037083
  26 H :    0.035940
  27 H :    0.033890
  28 H :    0.040019
Sum of atomic charges:   -0.0000000

LOEWDIN ATOMIC CHARGES
----------------------
   0 C :   -0.107636
   1 C :   -0.083533
   2 C :   -0.079684
   3 C :   -0.058712
   4 O :   -0.070410
   5 C :   -0.060041
   6 C :   -0.069854
   7 C :   -0.051821
   8 C :   -0.039438
   9 C :   -0.106220
  10 C :   -0.103084
  11 H :    0.044823
  12 H :    0.044321
  13 H :    0.043676
  14 H :    0.043541
  15 H :    0.045810
  16 H :    0.049086
  17 H :    0.055076
  18 H :    0.038579
  19 H :    0.044616
  20 H :    0.050961
  21 H :    0.047174
  22 H :    0.037592
  23 H :    0.048275
  24 H :    0.047755
  25 H :    0.049356
  26 H :    0.041987
  27 H :    0.046270
  28 H :    0.051536

  Mayer bond orders larger than 0.100000
B(  0-C ,  1-C ) :   1.0194 B(  0-C , 11-H ) :   0.9923 B(  0-C , 12-H ) :   0.9918
B(  0-C , 13-H ) :   0.9901 B(  1-C ,  2-C ) :   0.9758 B(  1-C ,  6-C ) :   0.9761
B(  1-C , 14-H ) :   0.9912 B(  2-C ,  3-C ) :   0.9940 B(  2-C , 15-H ) :   0.9906
B(  2-C , 16-H ) :   0.9966 B(  3-C ,  4-O ) :   0.9486 B(  3-C , 17-H ) :   1.0104
B(  3-C , 18-H ) :   0.9976 B(  4-O ,  5-C ) :   0.9398 B(  5-C ,  6-C ) :   0.9787
B(  5-C ,  7-C ) :   1.0642 B(  5-C , 19-H ) :   0.9979 B(  6-C , 20-H ) :   0.9938
B(  6-C , 21-H ) :   0.9898 B(  7-C ,  8-C ) :   1.8791 B(  7-C , 22-H ) :   0.9894
B(  8-C ,  9-C ) :   1.0310 B(  8-C , 10-C ) :   1.0351 B(  9-C , 23-H ) :   0.9928
B(  9-C , 24-H ) :   0.9794 B(  9-C , 25-H ) :   0.9793 B( 10-C , 26-H ) :   0.9852
B( 10-C , 27-H ) :   0.9753 B( 10-C , 28-H ) :   0.9769

Dispersion correction           -0.032887715
FINAL SINGLE POINT ENERGY       -83.888337072087

DIPOLE MOMENT
-------------

Method             : SCF
Type of density    : Electron Density
Multiplicity       :   1
Irrep              :   0
Energy             :   -83.8554493575259556 Eh
Relativity type    :
Basis              : AO
                                X                 Y                 Z
Electronic contribution:      1.462833900       4.917317654      -0.452531103
Nuclear contribution   :     -1.828015977      -5.126897961       0.199303616
                        -----------------------------------------
Total Dipole Moment    :     -0.365182077      -0.209580307      -0.253227487
                        -----------------------------------------
Magnitude (a.u.)       :      0.491330861
Magnitude (Debye)      :      1.248863799

VIBRATIONAL FREQUENCIES
-----------------------

Scaling factor for frequencies =  1.000000000  (already applied!)

     0:       0.00 cm**-1
     1:       0.00 cm**-1
     2:       0.00 cm**-1
     3:       0.00 cm**-1
     4:       0.00 cm**-1
     5:       0.00 cm**-1
     6:      45.82 cm**-1
     7:      88.43 cm**-1
     8:     101.73 cm**-1
     9:     143.73 cm**-1
    10:     169.30 cm**-1
    11:     200.88 cm**-1
    12:     224.39 cm**-1
    13:     246.35 cm**-1
    14:     292.11 cm**-1
    15:     318.99 cm**-1
    16:     327.33 cm**-1
    17:     386.21 cm**-1
    18:     416.34 cm**-1
    19:     428.05 cm**-1
    20:     455.64 cm**-1
    21:     485.92 cm**-1
    22:     508.91 cm**-1
    23:     597.09 cm**-1
    24:     738.63 cm**-1
    25:     817.24 cm**-1
    26:     832.68 cm**-1
    27:     847.68 cm**-1
    28:     882.95 cm**-1
    29:     934.74 cm**-1
    30:     959.05 cm**-1
    31:     983.65 cm**-1
    32:     991.21 cm**-1
    33:    1006.25 cm**-1
    34:    1029.57 cm**-1
    35:    1033.82 cm**-1
    36:    1066.84 cm**-1
    37:    1098.46 cm**-1
    38:    1129.51 cm**-1
    39:    1132.73 cm**-1
    40:    1171.58 cm**-1
    41:    1179.21 cm**-1
    42:    1191.71 cm**-1
    43:    1228.53 cm**-1
    44:    1251.13 cm**-1
    45:    1267.87 cm**-1
    46:    1314.62 cm**-1
    47:    1319.25 cm**-1
    48:    1326.22 cm**-1
    49:    1367.95 cm**-1
    50:    1399.83 cm**-1
    51:    1404.38 cm**-1
    52:    1420.48 cm**-1
    53:    1434.65 cm**-1
    54:    1445.76 cm**-1
    55:    1447.58 cm**-1
    56:    1454.52 cm**-1
    57:    1457.49 cm**-1
    58:    1464.63 cm**-1
    59:    1498.52 cm**-1
    60:    1501.75 cm**-1
    61:    1509.53 cm**-1
    62:    1514.17 cm**-1
    63:    1523.42 cm**-1
    64:    1526.28 cm**-1
    65:    1528.36 cm**-1
    66:    1532.52 cm**-1
    67:    1534.00 cm**-1
    68:    1806.39 cm**-1
    69:    3021.56 cm**-1
    70:    3042.80 cm**-1
    71:    3064.28 cm**-1
    72:    3090.40 cm**-1
    73:    3092.55 cm**-1
    74:    3094.76 cm**-1
    75:    3098.70 cm**-1
    76:    3099.44 cm**-1
    77:    3150.68 cm**-1
    78:    3156.41 cm**-1
    79:    3166.25 cm**-1
    80:    3172.30 cm**-1
    81:    3172.54 cm**-1
    82:    3181.52 cm**-1
    83:    3186.05 cm**-1
    84:    3206.46 cm**-1
    85:    3216.92 cm**-1
    86:    3254.76 cm**-1

IR SPECTRUM
-----------

 Mode   freq       eps      Int      T**2         TX        TY        TZ
       cm**-1   L/(mol*cm) km/mol    a.u.
----------------------------------------------------------------------------
  6:     45.82   0.000103    0.52  0.000701  (-0.011662  0.023695 -0.001902)
  7:     88.43   0.000120    0.61  0.000423  (-0.009492 -0.017591 -0.004812)
  8:    101.73   0.000146    0.74  0.000446  ( 0.005020 -0.009188 -0.018350)
  9:    143.73   0.000104    0.53  0.000226  ( 0.010019  0.010108 -0.004881)
 10:    169.30   0.000416    2.10  0.000767  (-0.004840  0.026223 -0.007510)
 11:    200.88   0.000059    0.30  0.000091  (-0.007938 -0.003118 -0.004317)
 12:    224.39   0.000115    0.58  0.000160  ( 0.009998 -0.007636  0.001125)
 13:    246.35   0.000024    0.12  0.000030  ( 0.002027 -0.004056  0.003117)
 14:    292.11   0.000069    0.35  0.000073  (-0.004576  0.003159  0.006515)
 15:    318.99   0.000519    2.62  0.000507  ( 0.005876  0.017295 -0.013181)
 16:    327.33   0.000336    1.70  0.000321  ( 0.004641 -0.013934  0.010252)
 17:    386.21   0.000101    0.51  0.000082  ( 0.003403 -0.004848  0.006816)
 18:    416.34   0.000087    0.44  0.000065  (-0.006846 -0.003916 -0.001652)
 19:    428.05   0.000743    3.75  0.000541  ( 0.009990  0.020211  0.005755)
 20:    455.64   0.000100    0.50  0.000068  (-0.001988  0.007948  0.001112)
 21:    485.92   0.000665    3.36  0.000427  ( 0.007832  0.016595  0.009501)
 22:    508.91   0.000486    2.46  0.000298  (-0.006260 -0.012021 -0.010687)
 23:    597.09   0.000981    4.96  0.000513  (-0.006253 -0.021747 -0.000736)
 24:    738.63   0.000794    4.02  0.000336  ( 0.017257 -0.006139  0.000411)
 25:    817.24   0.000671    3.39  0.000256  (-0.007942 -0.005806 -0.012632)
 26:    832.68   0.000124    0.63  0.000046  (-0.002377 -0.005704 -0.002877)
 27:    847.68   0.001569    7.93  0.000577  ( 0.007345  0.022697  0.002888)
 28:    882.95   0.001375    6.95  0.000486  (-0.005344 -0.013925 -0.016236)
 29:    934.74   0.003148   15.91  0.001051  (-0.028669 -0.001907 -0.015016)
 30:    959.05   0.000159    0.80  0.000052  (-0.003578 -0.002524  0.005695)
 31:    983.65   0.000125    0.63  0.000040  (-0.004716 -0.002594  0.003291)
 32:    991.21   0.000143    0.72  0.000045  (-0.005295  0.003685 -0.001853)
 33:   1006.25   0.000446    2.25  0.000138  (-0.008358  0.005144  0.006470)
 34:   1029.57   0.000834    4.22  0.000253  (-0.007115 -0.012463 -0.006847)
 35:   1033.82   0.000405    2.05  0.000122  ( 0.003504 -0.009875 -0.003544)
 36:   1066.84   0.001231    6.22  0.000360  (-0.014160  0.009239  0.008609)
 37:   1098.46   0.006102   30.84  0.001734  ( 0.033395  0.018422  0.016703)
 38:   1129.51   0.000458    2.31  0.000126  ( 0.011086  0.000223 -0.001860)
 39:   1132.73   0.000354    1.79  0.000097  (-0.004824  0.005605  0.006537)
 40:   1171.58   0.000842    4.26  0.000224  ( 0.005010 -0.010468 -0.009469)
 41:   1179.21   0.020220  102.19  0.005351  (-0.064483  0.030585  0.016050)
 42:   1191.71   0.002407   12.16  0.000630  ( 0.002451  0.010734 -0.022562)
 43:   1228.53   0.001370    6.92  0.000348  (-0.008493  0.008195  0.014444)
 44:   1251.13   0.005982   30.23  0.001492  (-0.029736  0.015861  0.018872)
 45:   1267.87   0.004778   24.14  0.001176  ( 0.029344 -0.008715 -0.015456)
 46:   1314.62   0.000500    2.53  0.000119  (-0.000899  0.010312  0.003391)
 47:   1319.25   0.003358   16.97  0.000794  ( 0.010678 -0.013701 -0.022194)
 48:   1326.22   0.001687    8.52  0.000397  ( 0.014447  0.002643 -0.013461)
 49:   1367.95   0.000675    3.41  0.000154  (-0.009456  0.003125  0.007397)
 50:   1399.83   0.000734    3.71  0.000164  ( 0.012743 -0.000222  0.001120)
 51:   1404.38   0.001165    5.89  0.000259  (-0.010907  0.008417  0.008305)
 52:   1420.48   0.000744    3.76  0.000164  ( 0.009768 -0.008083  0.001657)
 53:   1434.65   0.001426    7.21  0.000310  ( 0.016957 -0.003768  0.002905)
 54:   1445.76   0.000974    4.92  0.000210  ( 0.005973 -0.010963  0.007379)
 55:   1447.58   0.000870    4.39  0.000187  ( 0.010497  0.004137 -0.007758)
 56:   1454.52   0.004427   22.37  0.000950  (-0.022139 -0.013900 -0.016322)
 57:   1457.49   0.001956    9.89  0.000419  (-0.002096  0.018791 -0.007835)
 58:   1464.63   0.003283   16.59  0.000700  (-0.022832 -0.001903  0.013216)
 59:   1498.52   0.000362    1.83  0.000075  (-0.005971  0.003884  0.004969)
 60:   1501.75   0.000467    2.36  0.000097  ( 0.006360 -0.003799 -0.006501)
 61:   1509.53   0.000325    1.64  0.000067  (-0.007451 -0.002467 -0.002366)
 62:   1514.17   0.003648   18.44  0.000752  (-0.009091 -0.025274  0.005524)
 63:   1523.42   0.001996   10.09  0.000409  (-0.005552 -0.004745 -0.018857)
 64:   1526.28   0.003368   17.02  0.000689  (-0.011621  0.014862 -0.018238)
 65:   1528.36   0.001939    9.80  0.000396  (-0.010231  0.009229  0.014356)
 66:   1532.52   0.000819    4.14  0.000167  (-0.004772  0.011990  0.000399)
 67:   1534.00   0.000888    4.49  0.000181  ( 0.003123 -0.012732 -0.002967)
 68:   1806.39   0.003624   18.31  0.000626  (-0.020298  0.008532 -0.011885)
 69:   3021.56   0.008232   41.60  0.000850  (-0.005609  0.016870 -0.023111)
 70:   3042.80   0.013295   67.19  0.001364  ( 0.016032 -0.032542  0.006893)
 71:   3064.28   0.006481   32.75  0.000660  ( 0.007501 -0.018468  0.016208)
 72:   3090.40   0.003380   17.08  0.000341  (-0.003292  0.006022  0.017151)
 73:   3092.55   0.008507   42.99  0.000858  ( 0.025778  0.012704 -0.005703)
 74:   3094.76   0.003856   19.49  0.000389  (-0.017334 -0.001639  0.009254)
 75:   3098.70   0.004028   20.36  0.000406  (-0.011082 -0.013017 -0.010648)
 76:   3099.44   0.012349   62.41  0.001243  ( 0.020893 -0.024040  0.015129)
 77:   3150.68   0.005982   30.23  0.000593  (-0.019855  0.014081 -0.000192)
 78:   3156.41   0.004150   20.97  0.000410  ( 0.002254 -0.005957  0.019228)
 79:   3166.25   0.001548    7.82  0.000153  ( 0.001600  0.011271  0.004791)
 80:   3172.30   0.002556   12.92  0.000251  (-0.002859 -0.014729 -0.005126)
 81:   3172.54   0.005444   27.51  0.000536  (-0.005486  0.008534  0.020799)
 82:   3181.52   0.005409   27.34  0.000531  (-0.013667  0.007696 -0.016869)
 83:   3186.05   0.003872   19.57  0.000379  (-0.013031  0.006215  0.013072)
 84:   3206.46   0.001470    7.43  0.000143  (-0.001644  0.004698 -0.010877)
 85:   3216.92   0.004658   23.54  0.000452  ( 0.010606  0.007074 -0.017008)
 86:   3254.76   0.000458    2.31  0.000044  (-0.005058 -0.002247  0.003643)

--------------------------
THERMOCHEMISTRY AT 298.15K
--------------------------

Temperature         ...   298.15 K
Pressure            ...     1.00 atm
Total Mass          ...   154.25 AMU
Quasi RRHO          ...     True
Cut-Off Frequency   ...     1.00 cm^-1

Throughout the following assumptions are being made:
  (1) The electronic state is orbitally nondegenerate
  (2) There are no thermally accessible electronically excited states
  (3) Hindered rotations indicated by low frequency modes are not
      treated as such but are treated as vibrations and this may
      cause some error
  (4) All equations used are the standard statistical mechanics
      equations for an ideal gas
  (5) All vibrations are strictly harmonic

freq.      45.82  E(vib)   ...       0.53
freq.      88.43  E(vib)   ...       0.48
freq.     101.73  E(vib)   ...       0.46
freq.     143.73  E(vib)   ...       0.41
freq.     169.30  E(vib)   ...       0.38
freq.     200.88  E(vib)   ...       0.35
freq.     224.39  E(vib)   ...       0.33
freq.     246.35  E(vib)   ...       0.31
freq.     292.11  E(vib)   ...       0.27
freq.     318.99  E(vib)   ...       0.25
freq.     327.33  E(vib)   ...       0.24
freq.     386.21  E(vib)   ...       0.20
freq.     416.34  E(vib)   ...       0.18
freq.     428.05  E(vib)   ...       0.18
freq.     455.64  E(vib)   ...       0.16
freq.     485.92  E(vib)   ...       0.15
freq.     508.91  E(vib)   ...       0.14
freq.     597.09  E(vib)   ...       0.10
freq.     738.63  E(vib)   ...       0.06
freq.     817.24  E(vib)   ...       0.05
freq.     832.68  E(vib)   ...       0.04
freq.     847.68  E(vib)   ...       0.04
freq.     882.95  E(vib)   ...       0.04
freq.     934.74  E(vib)   ...       0.03
freq.     959.05  E(vib)   ...       0.03
freq.     983.65  E(vib)   ...       0.02
freq.     991.21  E(vib)   ...       0.02
freq.    1006.25  E(vib)   ...       0.02
freq.    1029.57  E(vib)   ...       0.02
freq.    1033.82  E(vib)   ...       0.02
freq.    1066.84  E(vib)   ...       0.02
freq.    1098.46  E(vib)   ...       0.02
freq.    1129.51  E(vib)   ...       0.01
freq.    1132.73  E(vib)   ...       0.01
freq.    1171.58  E(vib)   ...       0.01
freq.    1179.21  E(vib)   ...       0.01
freq.    1191.71  E(vib)   ...       0.01
freq.    1228.53  E(vib)   ...       0.01
freq.    1251.13  E(vib)   ...       0.01
freq.    1267.87  E(vib)   ...       0.01
freq.    1314.62  E(vib)   ...       0.01
freq.    1319.25  E(vib)   ...       0.01
freq.    1326.22  E(vib)   ...       0.01
freq.    1367.95  E(vib)   ...       0.01
freq.    1399.83  E(vib)   ...       0.00
freq.    1404.38  E(vib)   ...       0.00
freq.    1420.48  E(vib)   ...       0.00
freq.    1434.65  E(vib)   ...       0.00
freq.    1445.76  E(vib)   ...       0.00
freq.    1447.58  E(vib)   ...       0.00
freq.    1454.52  E(vib)   ...       0.00
freq.    1457.49  E(vib)   ...       0.00
freq.    1464.63  E(vib)   ...       0.00
freq.    1498.52  E(vib)   ...       0.00
freq.    1501.75  E(vib)   ...       0.00
freq.    1509.53  E(vib)   ...       0.00
freq.    1514.17  E(vib)   ...       0.00
freq.    1523.42  E(vib)   ...       0.00
freq.    1526.28  E(vib)   ...       0.00
freq.    1528.36  E(vib)   ...       0.00
freq.    1532.52  E(vib)   ...       0.00
freq.    1534.00  E(vib)   ...       0.00
freq.    1806.39  E(vib)   ...       0.00
freq.    3021.56  E(vib)   ...       0.00
freq.    3042.80  E(vib)   ...       0.00
freq.    3064.28  E(vib)   ...       0.00
freq.    3090.40  E(vib)   ...       0.00
freq.    3092.55  E(vib)   ...       0.00
freq.    3094.76  E(vib)   ...       0.00
freq.    3098.70  E(vib)   ...       0.00
freq.    3099.44  E(vib)   ...       0.00
freq.    3150.68  E(vib)   ...       0.00
freq.    3156.41  E(vib)   ...       0.00
freq.    3166.25  E(vib)   ...       0.00
freq.    3172.30  E(vib)   ...       0.00
freq.    3172.54  E(vib)   ...       0.00
freq.    3181.52  E(vib)   ...       0.00
freq.    3186.05  E(vib)   ...       0.00
freq.    3206.46  E(vib)   ...       0.00
freq.    3216.92  E(vib)   ...       0.00
freq.    3254.76  E(vib)   ...       0.00

------------
INNER ENERGY
------------

The inner energy is: U= E(el) + E(ZPE) + E(vib) + E(rot) + E(trans)
    E(el)   - is the total energy from the electronic structure calculation
              = E(kin-el) + E(nuc-el) + E(el-el) + E(nuc-nuc)
    E(ZPE)  - the the zero temperature vibrational energy from the frequency calculation
    E(vib)  - the the finite temperature correction to E(ZPE) due to population
              of excited vibrational states
    E(rot)  - is the rotational thermal energy
    E(trans)- is the translational thermal energy

Summary of contributions to the inner energy U:
Electronic energy                ...    -83.88833707 Eh
Zero point energy                ...      0.26976453 Eh     169.28 kcal/mol
Thermal vibrational correction   ...      0.00912474 Eh       5.73 kcal/mol
Thermal rotational correction    ...      0.00141627 Eh       0.89 kcal/mol
Thermal translational correction ...      0.00141627 Eh       0.89 kcal/mol
-----------------------------------------------------------------------
Total thermal energy                    -83.60661525 Eh

Summary of corrections to the electronic energy:
(perhaps to be used in another calculation)
Total thermal correction                  0.01195729 Eh       7.50 kcal/mol
Non-thermal (ZPE) correction              0.26976453 Eh     169.28 kcal/mol
-----------------------------------------------------------------------
Total correction                          0.28172182 Eh     176.78 kcal/mol

--------
ENTHALPY
--------

The enthalpy is H = U + kB*T
                kB is Boltzmann's constant
Total thermal energy              ...    -83.60661525 Eh
Thermal Enthalpy correction       ...      0.00094421 Eh       0.59 kcal/mol
-----------------------------------------------------------------------
Total Enthalpy                    ...    -83.60567104 Eh

Note: Only C1 symmetry has been detected, increase convergence thresholds
      if your molecule has a higher symmetry. Symmetry factor of 1.0 is
      used for the rotational entropy correction.

Note: Rotational entropy computed according to Herzberg
Infrared and Raman Spectra, Chapter V,1, Van Nostrand Reinhold, 1945
Point Group:  C1, Symmetry Number:   1
Rotational constants in cm-1:     0.068561     0.020405     0.018539

Vibrational entropy computed according to the QRRHO of S. Grimme
Chem.Eur.J. 2012 18 9955 using a reference frequency of 100.0 cm-1

-------
ENTROPY
-------

                             ****ORCA TERMINATED NORMALLY****
TOTAL RUN TIME: 0 days 0 hours 22 minutes 35 seconds 141 msec
