                         Program Version 6.0.1  -  RELEASE   -
|  1> ! wB97X-3c OPT FREQ TightSCF
|  2> %pal
|  3>   nprocs 40
|  4> end
|  5> * xyz 0 1
|  6> C     -0.888388    -1.101242    -1.313336
|  7> C     -0.945278    -0.238007    -0.021554
|  8> C     -0.619563     1.277331    -0.124669
|  9> C      0.560870     1.513200    -1.129183
| 10> C      1.712996     0.537625    -0.828947
| 11> C      1.562289    -0.369304     0.173765
| 12> C      0.249320    -0.310165     0.966641
| 13> C      0.032515     1.186112     1.269366
| 14> C      2.614801    -1.348432     0.480944
| 15> O      2.462220    -2.184560     1.409720
| 16> C     -2.303636    -0.499162     0.677294
| 17> H      0.052362    -1.036618    -1.888659
| 18> H     -1.028203    -2.171245    -1.050392
| 19> H     -1.710754    -0.799369    -1.995991
| 20> H     -1.482320     1.972647    -0.210664
| 21> H      0.930732     2.555673    -1.028769
| 22> H      0.207496     1.373039    -2.172250
| 23> H      2.613122     0.564994    -1.430342
| 24> H      0.146539    -0.997067     1.834431
| 25> H      0.954880     1.794771     1.419272
| 26> H     -0.688159     1.360505     2.097342
| 27> H      3.532822    -1.359147    -0.092728
| 28> H     -2.393255    -1.574807     0.940040
| 29> H     -3.137645    -0.231607    -0.006036
| 30> H     -2.435764     0.084834     1.610168
| 31> *
| 32>
| 33>                          ****END OF INPUT****
 Total Charge           Charge          ....    0
 Multiplicity           Mult            ....    1
 Number of Electrons    NEL             ....   60
Dispersion correction           -0.032602249
FINAL SINGLE POINT ENERGY       -81.412691717930
Dispersion correction             ... done (  0.1 sec)
Dispersion correction           -0.033069775
FINAL SINGLE POINT ENERGY       -81.427324471765
Dispersion correction             ... done (  0.1 sec)
Dispersion correction           -0.033171387
FINAL SINGLE POINT ENERGY       -81.428964652598
Dispersion correction             ... done (  0.1 sec)
FINAL SINGLE POINT ENERGY       -81.429208633491
FINAL SINGLE POINT ENERGY       -81.428816431884
Dispersion correction             ... done (  0.1 sec)
Dispersion correction           -0.033106466
FINAL SINGLE POINT ENERGY       -81.429337717502
Dispersion correction             ... done (  0.1 sec)
Dispersion correction           -0.033108148
FINAL SINGLE POINT ENERGY       -81.429340701872
Dispersion correction             ... done (  0.1 sec)
                    ***********************HURRAY********************

CARTESIAN COORDINATES (ANGSTROEM)
---------------------------------
  C     -0.928088   -1.104640   -1.280171
  C     -0.945033   -0.247590   -0.031556
  C     -0.580691    1.259888   -0.143975
  C      0.580843    1.474167   -1.109597
  C      1.697309    0.528400   -0.792977
  C      1.537965   -0.357576    0.189736
  C      0.252911   -0.325004    0.963494
  C     -0.015902    1.159459    1.284058
  C      2.598986   -1.321762    0.485452
  O      2.526744   -2.181688    1.326360
  C     -2.276297   -0.458103    0.673171
  H     -0.001059   -1.032064   -1.841085
  H     -1.070463   -2.153554   -1.017730
  H     -1.746121   -0.818568   -1.942840
  H     -1.394243    1.960701   -0.335205
  H      0.941660    2.504173   -1.045873
  H      0.265178    1.331563   -2.146572
  H      2.610066    0.561345   -1.377450
  H      0.230535   -1.067746    1.757165
  H      0.855162    1.768676    1.520662
  H     -0.769951    1.304527    2.050278
  H      3.507810   -1.216472   -0.134550
  H     -2.400639   -1.508930    0.936072
  H     -3.099493   -0.182425    0.012842
  H     -2.377190    0.123221    1.585755

 Multiplicity           Mult            ....    1
 Number of Electrons    NEL             ....   60
 Basis Dimension        Dim             ....  213

ORBITAL ENERGIES
----------------

  NO   OCC          E(Eh)            E(eV)
   0   2.0000      -1.170867       -31.8609
   1   2.0000      -1.047141       -28.4941
   2   2.0000      -0.945542       -25.7295
   3   2.0000      -0.895394       -24.3649
   4   2.0000      -0.885095       -24.0847
   5   2.0000      -0.822483       -22.3809
   6   2.0000      -0.774056       -21.0631
   7   2.0000      -0.754312       -20.5259
   8   2.0000      -0.730340       -19.8736
   9   2.0000      -0.688439       -18.7334
  10   2.0000      -0.636281       -17.3141
  11   2.0000      -0.608273       -16.5519
  12   2.0000      -0.590925       -16.0799
  13   2.0000      -0.575679       -15.6650
  14   2.0000      -0.568703       -15.4752
  15   2.0000      -0.555814       -15.1245
  16   2.0000      -0.542235       -14.7550
  17   2.0000      -0.521872       -14.2009
  18   2.0000      -0.516188       -14.0462
  19   2.0000      -0.514339       -13.9959
  20   2.0000      -0.503043       -13.6885
  21   2.0000      -0.486231       -13.2310
  22   2.0000      -0.483738       -13.1632
  23   2.0000      -0.468544       -12.7497
  24   2.0000      -0.444640       -12.0993
  25   2.0000      -0.415519       -11.3068
  26   2.0000      -0.408104       -11.1051
  27   2.0000      -0.397091       -10.8054
  28   2.0000      -0.364303        -9.9132
  29   2.0000      -0.354607        -9.6494
  30   0.0000       0.022105         0.6015
  31   0.0000       0.081040         2.2052
  32   0.0000       0.093080         2.5328
  33   0.0000       0.100693         2.7400
  34   0.0000       0.106576         2.9001

MULLIKEN ATOMIC CHARGES
-----------------------
   0 C :   -0.006350
   1 C :   -0.175083
   2 C :   -0.028236
   3 C :   -0.052559
   4 C :   -0.002099
   5 C :   -0.075058
   6 C :    0.004565
   7 C :   -0.007073
   8 C :    0.211248
   9 O :   -0.308025
  10 C :   -0.015392
  11 H :    0.029732
  12 H :    0.037322
  13 H :    0.029110
  14 H :    0.034156
  15 H :    0.051222
  16 H :    0.048817
  17 H :    0.033701
  18 H :    0.047573
  19 H :    0.038919
  20 H :    0.031327
  21 H :   -0.003909
  22 H :    0.032183
  23 H :    0.027869
  24 H :    0.016039
Sum of atomic charges:   -0.0000000

LOEWDIN ATOMIC CHARGES
----------------------
   0 C :   -0.104904
   1 C :   -0.054848
   2 C :   -0.033329
   3 C :   -0.075285
   4 C :    0.006884
   5 C :   -0.053360
   6 C :   -0.022491
   7 C :   -0.048869
   8 C :    0.003746
   9 O :   -0.129201
  10 C :   -0.099495
  11 H :    0.038710
  12 H :    0.049920
  13 H :    0.045943
  14 H :    0.034964
  15 H :    0.055364
  16 H :    0.053327
  17 H :    0.042789
  18 H :    0.041979
  19 H :    0.037206
  20 H :    0.036986
  21 H :    0.038502
  22 H :    0.047935
  23 H :    0.045461
  24 H :    0.042066

  Mayer bond orders larger than 0.100000
B(  0-C ,  1-C ) :   1.0194 B(  0-C , 11-H ) :   0.9871 B(  0-C , 12-H ) :   0.9851
B(  0-C , 13-H ) :   0.9843 B(  1-C ,  2-C ) :   0.9530 B(  1-C ,  6-C ) :   0.9471
B(  1-C , 10-C ) :   1.0303 B(  2-C ,  3-C ) :   1.0046 B(  2-C ,  7-C ) :   0.9778
B(  2-C , 14-H ) :   1.0037 B(  3-C ,  4-C ) :   1.0267 B(  3-C , 15-H ) :   0.9782
B(  3-C , 16-H ) :   0.9767 B(  4-C ,  5-C ) :   1.8209 B(  4-C , 17-H ) :   0.9841
B(  5-C ,  6-C ) :   1.0274 B(  5-C ,  8-C ) :   1.1128 B(  6-C ,  7-C ) :   0.9695
B(  6-C , 18-H ) :   0.9873 B(  7-C , 19-H ) :   1.0021 B(  7-C , 20-H ) :   1.0020
B(  8-C ,  9-O ) :   1.8680 B(  8-C , 21-H ) :   1.0102 B( 10-C , 22-H ) :   0.9897
B( 10-C , 23-H ) :   0.9893 B( 10-C , 24-H ) :   0.9903

Dispersion correction           -0.033111267
FINAL SINGLE POINT ENERGY       -81.429341800368

DIPOLE MOMENT
-------------

Method             : SCF
Type of density    : Electron Density
Multiplicity       :   1
Irrep              :   0
Energy             :   -81.3962305334346041 Eh
Relativity type    :
Basis              : AO
                                X                 Y                 Z
Electronic contribution:      9.327187941      -1.331994290       2.672066505
Nuclear contribution   :     -9.781267982       2.471111302      -3.569620464
                        -----------------------------------------
Total Dipole Moment    :     -0.454080041       1.139117013      -0.897553959
                        -----------------------------------------
Magnitude (a.u.)       :      1.519664227
Magnitude (Debye)      :      3.862679492

VIBRATIONAL FREQUENCIES
-----------------------

Scaling factor for frequencies =  1.000000000  (already applied!)

     0:       0.00 cm**-1
     1:       0.00 cm**-1
     2:       0.00 cm**-1
     3:       0.00 cm**-1
     4:       0.00 cm**-1
     5:       0.00 cm**-1
     6:      75.15 cm**-1
     7:     163.48 cm**-1
     8:     174.04 cm**-1
     9:     198.58 cm**-1
    10:     226.57 cm**-1
    11:     243.23 cm**-1
    12:     275.89 cm**-1
    13:     354.83 cm**-1
    14:     388.48 cm**-1
    15:     403.36 cm**-1
    16:     431.36 cm**-1
    17:     458.66 cm**-1
    18:     477.43 cm**-1
    19:     594.89 cm**-1
    20:     618.05 cm**-1
    21:     659.38 cm**-1
    22:     727.71 cm**-1
    23:     817.90 cm**-1
    24:     837.19 cm**-1
    25:     868.95 cm**-1
    26:     897.27 cm**-1
    27:     936.16 cm**-1
    28:     964.08 cm**-1
    29:     981.71 cm**-1
    30:     989.73 cm**-1
    31:    1005.72 cm**-1
    32:    1012.82 cm**-1
    33:    1042.90 cm**-1
    34:    1048.13 cm**-1
    35:    1095.37 cm**-1
    36:    1104.54 cm**-1
    37:    1136.90 cm**-1
    38:    1169.03 cm**-1
    39:    1188.48 cm**-1
    40:    1231.90 cm**-1
    41:    1245.94 cm**-1
    42:    1273.23 cm**-1
    43:    1290.28 cm**-1
    44:    1295.59 cm**-1
    45:    1305.96 cm**-1
    46:    1351.15 cm**-1
    47:    1380.76 cm**-1
    48:    1406.10 cm**-1
    49:    1438.84 cm**-1
    50:    1440.15 cm**-1
    51:    1451.02 cm**-1
    52:    1453.16 cm**-1
    53:    1497.41 cm**-1
    54:    1511.35 cm**-1
    55:    1518.54 cm**-1
    56:    1532.23 cm**-1
    57:    1544.17 cm**-1
    58:    1549.61 cm**-1
    59:    1755.75 cm**-1
    60:    1845.98 cm**-1
    61:    3004.62 cm**-1
    62:    3091.62 cm**-1
    63:    3098.73 cm**-1
    64:    3103.39 cm**-1
    65:    3133.47 cm**-1
    66:    3136.12 cm**-1
    67:    3143.97 cm**-1
    68:    3178.44 cm**-1
    69:    3183.03 cm**-1
    70:    3183.67 cm**-1
    71:    3208.88 cm**-1
    72:    3218.57 cm**-1
    73:    3226.04 cm**-1
    74:    3230.63 cm**-1

IR SPECTRUM
-----------

 Mode   freq       eps      Int      T**2         TX        TY        TZ
       cm**-1   L/(mol*cm) km/mol    a.u.
----------------------------------------------------------------------------
  6:     75.15   0.000537    2.71  0.002231  (-0.024757 -0.025473 -0.031125)
  7:    163.48   0.000836    4.22  0.001595  (-0.022880  0.028226  0.016580)
  8:    174.04   0.000549    2.78  0.000985  ( 0.029989 -0.009245  0.000619)
  9:    198.58   0.001062    5.37  0.001669  ( 0.019409  0.022567  0.027976)
 10:    226.57   0.001036    5.24  0.001427  (-0.031602 -0.007862 -0.019147)
 11:    243.23   0.000631    3.19  0.000810  ( 0.023711 -0.015122 -0.004371)
 12:    275.89   0.000100    0.50  0.000113  ( 0.005094  0.004604  0.008116)
 13:    354.83   0.000722    3.65  0.000635  (-0.005095 -0.019513 -0.015100)
 14:    388.48   0.000203    1.02  0.000163  (-0.010352  0.006421  0.003786)
 15:    403.36   0.000057    0.29  0.000044  (-0.002063  0.005889  0.002350)
 16:    431.36   0.000320    1.62  0.000232  (-0.012544 -0.005587 -0.006567)
 17:    458.66   0.000223    1.13  0.000152  (-0.005290  0.009951  0.004980)
 18:    477.43   0.000281    1.42  0.000184  (-0.012792  0.004068 -0.001893)
 19:    594.89   0.000506    2.56  0.000266  (-0.003983  0.012280  0.009947)
 20:    618.05   0.000848    4.29  0.000428  (-0.020299  0.003888 -0.000979)
 21:    659.38   0.000365    1.84  0.000173  (-0.006914  0.011138 -0.000911)
 22:    727.71   0.002589   13.08  0.001110  (-0.025431  0.020856 -0.005327)
 23:    817.90   0.003382   17.09  0.001290  ( 0.034239 -0.010335  0.003365)
 24:    837.19   0.002773   14.01  0.001034  ( 0.009724  0.024746  0.018077)
 25:    868.95   0.000140    0.71  0.000050  (-0.005375 -0.001694 -0.004322)
 26:    897.27   0.000305    1.54  0.000106  ( 0.003546 -0.006704  0.006968)
 27:    936.16   0.000965    4.88  0.000322  (-0.004242  0.005421  0.016559)
 28:    964.08   0.000754    3.81  0.000244  ( 0.013810 -0.005393  0.004939)
 29:    981.71   0.000093    0.47  0.000030  (-0.000674  0.003622  0.003994)
 30:    989.73   0.000721    3.64  0.000227  (-0.011979 -0.005998  0.006918)
 31:   1005.72   0.000950    4.80  0.000295  (-0.015032  0.007004 -0.004440)
 32:   1012.82   0.001568    7.92  0.000483  (-0.005513 -0.017590  0.011972)
 33:   1042.90   0.000218    1.10  0.000065  (-0.005258  0.003664 -0.004910)
 34:   1048.13   0.000050    0.25  0.000015  ( 0.002294  0.001655  0.002631)
 35:   1095.37   0.000332    1.68  0.000095  (-0.007612  0.000501  0.006042)
 36:   1104.54   0.000801    4.05  0.000226  (-0.009945  0.010236 -0.004765)
 37:   1136.90   0.000393    1.99  0.000108  (-0.010268 -0.001226  0.000961)
 38:   1169.03   0.000175    0.88  0.000047  (-0.001284  0.006263  0.002417)
 39:   1188.48   0.004147   20.96  0.001089  ( 0.012500 -0.025874  0.016220)
 40:   1231.90   0.003047   15.40  0.000772  (-0.012482  0.023899 -0.006701)
 41:   1245.94   0.001869    9.45  0.000468  ( 0.013738 -0.013377  0.010027)
 42:   1273.23   0.001357    6.86  0.000333  ( 0.011027 -0.000621  0.014510)
 43:   1290.28   0.000881    4.45  0.000213  (-0.007446  0.012024 -0.003596)
 44:   1295.59   0.000453    2.29  0.000109  (-0.003545 -0.007585  0.006244)
 45:   1305.96   0.001349    6.82  0.000322  ( 0.016944 -0.005921 -0.000437)
 46:   1351.15   0.001007    5.09  0.000233  (-0.008757 -0.005562 -0.011176)
 47:   1380.76   0.000373    1.88  0.000084  (-0.007933 -0.004584 -0.000597)
 48:   1406.10   0.000985    4.98  0.000219  ( 0.006064  0.011621 -0.006847)
 49:   1438.84   0.002729   13.79  0.000592  ( 0.016659 -0.011047 -0.013869)
 50:   1440.15   0.000991    5.01  0.000215  (-0.001111  0.000221 -0.014612)
 51:   1451.02   0.001830    9.25  0.000394  (-0.010047  0.011708 -0.012476)
 52:   1453.16   0.002455   12.41  0.000527  (-0.015040 -0.015709 -0.007363)
 53:   1497.41   0.003586   18.12  0.000747  (-0.003680  0.019634 -0.018661)
 54:   1511.35   0.000765    3.86  0.000158  ( 0.008471 -0.000860 -0.009241)
 55:   1518.54   0.001161    5.87  0.000239  ( 0.001740  0.008000 -0.013096)
 56:   1532.23   0.000309    1.56  0.000063  ( 0.002154  0.001368 -0.007505)
 57:   1544.17   0.002017   10.19  0.000408  ( 0.007277 -0.018835  0.000010)
 58:   1549.61   0.001659    8.38  0.000334  (-0.007742 -0.008497 -0.014212)
 59:   1755.75   0.006036   30.51  0.001073  ( 0.019976 -0.022708  0.012577)
 60:   1845.98   0.071931  363.51  0.012160  (-0.028423  0.083023 -0.066778)
 61:   3004.62   0.017851   90.21  0.001854  ( 0.039359 -0.003273 -0.017153)
 62:   3091.62   0.004758   24.05  0.000480  (-0.006729 -0.013995  0.015464)
 63:   3098.73   0.004454   22.51  0.000449  ( 0.010674 -0.005322 -0.017500)
 64:   3103.39   0.008811   44.53  0.000886  (-0.024009 -0.015351 -0.008596)
 65:   3133.47   0.008120   41.04  0.000809  ( 0.019685 -0.011129  0.017244)
 66:   3136.12   0.001700    8.59  0.000169  (-0.005760 -0.008192 -0.008297)
 67:   3143.97   0.007578   38.30  0.000752  (-0.003894  0.024531  0.011630)
 68:   3178.44   0.000137    0.69  0.000013  (-0.001644  0.002909 -0.001495)
 69:   3183.03   0.003906   19.74  0.000383  (-0.010191  0.014021 -0.009081)
 70:   3183.67   0.002702   13.65  0.000265  ( 0.000876 -0.009910  0.012879)
 71:   3208.88   0.002610   13.19  0.000254  (-0.009297 -0.010019 -0.008184)
 72:   3218.57   0.002859   14.45  0.000277  ( 0.014849  0.002596 -0.007070)
 73:   3226.04   0.004865   24.59  0.000471  ( 0.014369 -0.005444 -0.015313)
 74:   3230.63   0.001596    8.07  0.000154  ( 0.010613  0.001476 -0.006274)

--------------------------
THERMOCHEMISTRY AT 298.15K
--------------------------

Temperature         ...   298.15 K
Pressure            ...     1.00 atm
Total Mass          ...   150.22 AMU
Quasi RRHO          ...     True
Cut-Off Frequency   ...     1.00 cm^-1

Throughout the following assumptions are being made:
  (1) The electronic state is orbitally nondegenerate
  (2) There are no thermally accessible electronically excited states
  (3) Hindered rotations indicated by low frequency modes are not
      treated as such but are treated as vibrations and this may
      cause some error
  (4) All equations used are the standard statistical mechanics
      equations for an ideal gas
  (5) All vibrations are strictly harmonic

freq.      75.15  E(vib)   ...       0.49
freq.     163.48  E(vib)   ...       0.39
freq.     174.04  E(vib)   ...       0.38
freq.     198.58  E(vib)   ...       0.35
freq.     226.57  E(vib)   ...       0.33
freq.     243.23  E(vib)   ...       0.31
freq.     275.89  E(vib)   ...       0.28
freq.     354.83  E(vib)   ...       0.22
freq.     388.48  E(vib)   ...       0.20
freq.     403.36  E(vib)   ...       0.19
freq.     431.36  E(vib)   ...       0.18
freq.     458.66  E(vib)   ...       0.16
freq.     477.43  E(vib)   ...       0.15
freq.     594.89  E(vib)   ...       0.10
freq.     618.05  E(vib)   ...       0.09
freq.     659.38  E(vib)   ...       0.08
freq.     727.71  E(vib)   ...       0.06
freq.     817.90  E(vib)   ...       0.05
freq.     837.19  E(vib)   ...       0.04
freq.     868.95  E(vib)   ...       0.04
freq.     897.27  E(vib)   ...       0.03
freq.     936.16  E(vib)   ...       0.03
freq.     964.08  E(vib)   ...       0.03
freq.     981.71  E(vib)   ...       0.02
freq.     989.73  E(vib)   ...       0.02
freq.    1005.72  E(vib)   ...       0.02
freq.    1012.82  E(vib)   ...       0.02
freq.    1042.90  E(vib)   ...       0.02
freq.    1048.13  E(vib)   ...       0.02
freq.    1095.37  E(vib)   ...       0.02
freq.    1104.54  E(vib)   ...       0.02
freq.    1136.90  E(vib)   ...       0.01
freq.    1169.03  E(vib)   ...       0.01
freq.    1188.48  E(vib)   ...       0.01
freq.    1231.90  E(vib)   ...       0.01
freq.    1245.94  E(vib)   ...       0.01
freq.    1273.23  E(vib)   ...       0.01
freq.    1290.28  E(vib)   ...       0.01
freq.    1295.59  E(vib)   ...       0.01
freq.    1305.96  E(vib)   ...       0.01
freq.    1351.15  E(vib)   ...       0.01
freq.    1380.76  E(vib)   ...       0.01
freq.    1406.10  E(vib)   ...       0.00
freq.    1438.84  E(vib)   ...       0.00
freq.    1440.15  E(vib)   ...       0.00
freq.    1451.02  E(vib)   ...       0.00
freq.    1453.16  E(vib)   ...       0.00
freq.    1497.41  E(vib)   ...       0.00
freq.    1511.35  E(vib)   ...       0.00
freq.    1518.54  E(vib)   ...       0.00
freq.    1532.23  E(vib)   ...       0.00
freq.    1544.17  E(vib)   ...       0.00
freq.    1549.61  E(vib)   ...       0.00
freq.    1755.75  E(vib)   ...       0.00
freq.    1845.98  E(vib)   ...       0.00
freq.    3004.62  E(vib)   ...       0.00
freq.    3091.62  E(vib)   ...       0.00
freq.    3098.73  E(vib)   ...       0.00
freq.    3103.39  E(vib)   ...       0.00
freq.    3133.47  E(vib)   ...       0.00
freq.    3136.12  E(vib)   ...       0.00
freq.    3143.97  E(vib)   ...       0.00
freq.    3178.44  E(vib)   ...       0.00
freq.    3183.03  E(vib)   ...       0.00
freq.    3183.67  E(vib)   ...       0.00
freq.    3208.88  E(vib)   ...       0.00
freq.    3218.57  E(vib)   ...       0.00
freq.    3226.04  E(vib)   ...       0.00
freq.    3230.63  E(vib)   ...       0.00

------------
INNER ENERGY
------------

The inner energy is: U= E(el) + E(ZPE) + E(vib) + E(rot) + E(trans)
    E(el)   - is the total energy from the electronic structure calculation
              = E(kin-el) + E(nuc-el) + E(el-el) + E(nuc-nuc)
    E(ZPE)  - the the zero temperature vibrational energy from the frequency calculation
    E(vib)  - the the finite temperature correction to E(ZPE) due to population
              of excited vibrational states
    E(rot)  - is the rotational thermal energy
    E(trans)- is the translational thermal energy

Summary of contributions to the inner energy U:
Electronic energy                ...    -81.42934180 Eh
Zero point energy                ...      0.22332479 Eh     140.14 kcal/mol
Thermal vibrational correction   ...      0.00716146 Eh       4.49 kcal/mol
Thermal rotational correction    ...      0.00141627 Eh       0.89 kcal/mol
Thermal translational correction ...      0.00141627 Eh       0.89 kcal/mol
-----------------------------------------------------------------------
Total thermal energy                    -81.19602302 Eh

Summary of corrections to the electronic energy:
(perhaps to be used in another calculation)
Total thermal correction                  0.00999400 Eh       6.27 kcal/mol
Non-thermal (ZPE) correction              0.22332479 Eh     140.14 kcal/mol
-----------------------------------------------------------------------
Total correction                          0.23331878 Eh     146.41 kcal/mol

--------
ENTHALPY
--------

The enthalpy is H = U + kB*T
                kB is Boltzmann's constant
Total thermal energy              ...    -81.19602302 Eh
Thermal Enthalpy correction       ...      0.00094421 Eh       0.59 kcal/mol
-----------------------------------------------------------------------
Total Enthalpy                    ...    -81.19507881 Eh

Note: Only C1 symmetry has been detected, increase convergence thresholds
      if your molecule has a higher symmetry. Symmetry factor of 1.0 is
      used for the rotational entropy correction.

Note: Rotational entropy computed according to Herzberg
Infrared and Raman Spectra, Chapter V,1, Van Nostrand Reinhold, 1945
Point Group:  C1, Symmetry Number:   1
Rotational constants in cm-1:     0.056475     0.032492     0.028265

Vibrational entropy computed according to the QRRHO of S. Grimme
Chem.Eur.J. 2012 18 9955 using a reference frequency of 100.0 cm-1

-------
ENTROPY
-------

The entropy contributions are T*S = T*(S(el)+S(vib)+S(rot)+S(trans))
     S(el)   - electronic entropy
     S(vib)  - vibrational entropy
     S(rot)  - rotational entropy
     S(trans)- translational entropy
The entropies will be listed as multiplied by the temperature to get
units of energy

Electronic entropy                ...      0.00000000 Eh      0.00 kcal/mol
Vibrational entropy               ...      0.01172393 Eh      7.36 kcal/mol
Rotational entropy                ...      0.01416886 Eh      8.89 kcal/mol

                             ****ORCA TERMINATED NORMALLY****
TOTAL RUN TIME: 0 days 0 hours 10 minutes 25 seconds 674 msec
