                         Program Version 6.0.1  -  RELEASE   -
|  1> ! wB97X-3c OPT FREQ TightSCF
|  2> %pal
|  3>   nprocs 40
|  4> end
|  5> * xyz 0 1
|  6> C     -2.574030    -0.214525     0.783325
|  7> C     -1.779412     0.327288    -0.377438
|  8> C     -2.399783     0.623604    -1.524243
|  9> C     -0.313517     0.539147    -0.276701
| 10> C      0.394149     0.273280     0.828732
| 11> C      1.878792     0.486496     0.879151
| 12> C      2.608108    -0.728567     0.379349
| 13> C      2.731118    -0.990146    -0.925252
| 14> H     -2.191958    -1.219401     1.060482
| 15> H     -2.477630     0.468716     1.653050
| 16> H     -3.654466    -0.312628     0.542084
| 17> H     -1.851174     1.013387    -2.373132
| 18> H     -3.467419     0.482826    -1.638369
| 19> H      0.208700     0.931432    -1.142545
| 20> H     -0.086319    -0.119415     1.715374
| 21> H      2.176706     1.391115     0.304307
| 22> H      2.169258     0.657267     1.937637
| 23> H      3.055029    -1.407879     1.099399
| 24> H      3.266810    -1.875116    -1.252800
| 25> H      2.307038    -0.326883    -1.672410
| 26> *
| 27>
| 28>                          ****END OF INPUT****
 Total Charge           Charge          ....    0
 Multiplicity           Mult            ....    1
 Number of Electrons    NEL             ....   44
Dispersion correction           -0.019806363
FINAL SINGLE POINT ENERGY       -52.739284213438
Dispersion correction             ... done (  0.0 sec)
Dispersion correction           -0.019703571
FINAL SINGLE POINT ENERGY       -52.743938063712
Dispersion correction             ... done (  0.1 sec)
Dispersion correction           -0.019606489
FINAL SINGLE POINT ENERGY       -52.745226666578
Dispersion correction             ... done (  0.1 sec)
FINAL SINGLE POINT ENERGY       -52.746423707819
FINAL SINGLE POINT ENERGY       -52.747333059327
FINAL SINGLE POINT ENERGY       -52.748154993136
FINAL SINGLE POINT ENERGY       -52.748416248693
FINAL SINGLE POINT ENERGY       -52.748521046881
FINAL SINGLE POINT ENERGY       -52.748571130044
FINAL SINGLE POINT ENERGY       -52.748592852392
Dispersion correction             ... done (  0.1 sec)
Dispersion correction           -0.019281019
FINAL SINGLE POINT ENERGY       -52.748601844223
Dispersion correction             ... done (  0.1 sec)
Dispersion correction           -0.019281325
FINAL SINGLE POINT ENERGY       -52.748603984957
Dispersion correction             ... done (  0.0 sec)
                    ***********************HURRAY********************

CARTESIAN COORDINATES (ANGSTROEM)
---------------------------------
  C     -2.568786   -0.342096    0.786918
  C     -1.988240    0.469771   -0.327094
  C     -2.754057    1.002072   -1.276219
  C     -0.537973    0.675797   -0.363465
  C      0.332864    0.208482    0.522851
  C      1.808689    0.440729    0.455809
  C      2.583851   -0.839190    0.418168
  C      3.433679   -1.177851   -0.536688
  H     -2.153400   -1.349755    0.790481
  H     -2.344594    0.107543    1.754198
  H     -3.648835   -0.418617    0.688798
  H     -2.326601    1.587919   -2.079734
  H     -3.827466    0.867999   -1.278517
  H     -0.168578    1.265342   -1.196498
  H     -0.018054   -0.388226    1.358528
  H      2.054201    1.051108   -0.413254
  H      2.115584    1.006502    1.340918
  H      2.416034   -1.524670    1.243808
  H      3.967854   -2.118042   -0.508849
  H      3.623826   -0.524819   -1.380158

 Multiplicity           Mult            ....    1
 Number of Electrons    NEL             ....   44
 Basis Dimension        Dim             ....  164

ORBITAL ENERGIES
----------------

  NO   OCC          E(Eh)            E(eV)
   0   2.0000      -0.974083       -26.5062
   1   2.0000      -0.943997       -25.6875
   2   2.0000      -0.888335       -24.1728
   3   2.0000      -0.826813       -22.4987
   4   2.0000      -0.815323       -22.1861
   5   2.0000      -0.709969       -19.3192
   6   2.0000      -0.685178       -18.6446
   7   2.0000      -0.649318       -17.6688
   8   2.0000      -0.594877       -16.1874
   9   2.0000      -0.591425       -16.0935
  10   2.0000      -0.564295       -15.3553
  11   2.0000      -0.537438       -14.6244
  12   2.0000      -0.534823       -14.5533
  13   2.0000      -0.522473       -14.2172
  14   2.0000      -0.496965       -13.5231
  15   2.0000      -0.479479       -13.0473
  16   2.0000      -0.477784       -13.0012
  17   2.0000      -0.454365       -12.3639
  18   2.0000      -0.443825       -12.0771
  19   2.0000      -0.409026       -11.1302
  20   2.0000      -0.365096        -9.9348
  21   2.0000      -0.321433        -8.7466
  22   0.0000       0.052582         1.4308
  23   0.0000       0.088802         2.4164
  24   0.0000       0.094193         2.5631
  25   0.0000       0.099286         2.7017
  26   0.0000       0.102974         2.8021

MULLIKEN ATOMIC CHARGES
-----------------------
   0 C :   -0.065267
   1 C :   -0.089677
   2 C :   -0.023310
   3 C :    0.012208
   4 C :   -0.041206
   5 C :   -0.052247
   6 C :   -0.043279
   7 C :   -0.033007
   8 H :    0.048580
   9 H :    0.047027
  10 H :    0.029398
  11 H :    0.023433
  12 H :    0.021174
  13 H :    0.009142
  14 H :    0.012888
  15 H :    0.022653
  16 H :    0.059017
  17 H :    0.013863
  18 H :    0.025998
  19 H :    0.022611
Sum of atomic charges:   -0.0000000

LOEWDIN ATOMIC CHARGES
----------------------
   0 C :   -0.104990
   1 C :   -0.060385
   2 C :   -0.069453
   3 C :   -0.046896
   4 C :   -0.034866
   5 C :   -0.090565
   6 C :   -0.047682
   7 C :   -0.075732
   8 H :    0.051155
   9 H :    0.050493
  10 H :    0.051574
  11 H :    0.034237
  12 H :    0.033658
  13 H :    0.046997
  14 H :    0.038690
  15 H :    0.054272
  16 H :    0.056587
  17 H :    0.041349
  18 H :    0.037199
  19 H :    0.034358

  Mayer bond orders larger than 0.100000
B(  0-C ,  1-C ) :   1.0353 B(  0-C ,  8-H ) :   0.9750 B(  0-C ,  9-H ) :   0.9752
B(  0-C , 10-H ) :   0.9915 B(  1-C ,  2-C ) :   1.8605 B(  1-C ,  3-C ) :   1.1423
B(  2-C , 11-H ) :   0.9901 B(  2-C , 12-H ) :   0.9894 B(  3-C ,  4-C ) :   1.8320
B(  3-C , 13-H ) :   0.9935 B(  4-C ,  5-C ) :   1.0129 B(  4-C , 14-H ) :   0.9995
B(  5-C ,  6-C ) :   1.0119 B(  5-C , 15-H ) :   0.9972 B(  5-C , 16-H ) :   0.9717
B(  6-C ,  7-C ) :   1.9400 B(  6-C , 17-H ) :   1.0050 B(  7-C , 18-H ) :   0.9961
B(  7-C , 19-H ) :   0.9986

Dispersion correction           -0.019282059
FINAL SINGLE POINT ENERGY       -52.748604523984

DIPOLE MOMENT
-------------

Method             : SCF
Type of density    : Electron Density
Multiplicity       :   1
Irrep              :   0
Energy             :   -52.7293224653698331 Eh
Relativity type    :
Basis              : AO
                                X                 Y                 Z
Electronic contribution:      0.892074814       1.201668344      -0.686958625
Nuclear contribution   :     -0.864202267      -1.220131127       0.891220359
                        -----------------------------------------
Total Dipole Moment    :      0.027872547      -0.018462783       0.204261734
                        -----------------------------------------
Magnitude (a.u.)       :      0.206979731
Magnitude (Debye)      :      0.526100667

VIBRATIONAL FREQUENCIES
-----------------------

Scaling factor for frequencies =  1.000000000  (already applied!)

     0:       0.00 cm**-1
     1:       0.00 cm**-1
     2:       0.00 cm**-1
     3:       0.00 cm**-1
     4:       0.00 cm**-1
     5:       0.00 cm**-1
     6:      46.27 cm**-1
     7:      64.49 cm**-1
     8:     126.67 cm**-1
     9:     168.80 cm**-1
    10:     194.51 cm**-1
    11:     222.80 cm**-1
    12:     329.92 cm**-1
    13:     346.26 cm**-1
    14:     431.96 cm**-1
    15:     473.80 cm**-1
    16:     521.01 cm**-1
    17:     545.13 cm**-1
    18:     670.40 cm**-1
    19:     725.35 cm**-1
    20:     852.86 cm**-1
    21:     878.33 cm**-1
    22:     938.27 cm**-1
    23:     952.26 cm**-1
    24:     961.39 cm**-1
    25:     982.85 cm**-1
    26:    1013.40 cm**-1
    27:    1016.95 cm**-1
    28:    1047.69 cm**-1
    29:    1060.41 cm**-1
    30:    1091.27 cm**-1
    31:    1092.58 cm**-1
    32:    1173.22 cm**-1
    33:    1259.95 cm**-1
    34:    1317.56 cm**-1
    35:    1348.47 cm**-1
    36:    1360.98 cm**-1
    37:    1369.89 cm**-1
    38:    1383.89 cm**-1
    39:    1446.40 cm**-1
    40:    1475.67 cm**-1
    41:    1481.99 cm**-1
    42:    1505.10 cm**-1
    43:    1512.75 cm**-1
    44:    1528.84 cm**-1
    45:    1740.23 cm**-1
    46:    1771.29 cm**-1
    47:    1796.01 cm**-1
    48:    3086.91 cm**-1
    49:    3105.63 cm**-1
    50:    3163.57 cm**-1
    51:    3188.38 cm**-1
    52:    3202.67 cm**-1
    53:    3210.02 cm**-1
    54:    3212.51 cm**-1
    55:    3215.21 cm**-1
    56:    3215.76 cm**-1
    57:    3222.34 cm**-1
    58:    3305.84 cm**-1
    59:    3307.31 cm**-1

IR SPECTRUM
-----------

 Mode   freq       eps      Int      T**2         TX        TY        TZ
       cm**-1   L/(mol*cm) km/mol    a.u.
----------------------------------------------------------------------------
  6:     46.27   0.000014    0.07  0.000097  (-0.008152 -0.004322  0.003405)
  7:     64.49   0.000048    0.24  0.000234  ( 0.005945 -0.011836 -0.007647)
  8:    126.67   0.000073    0.37  0.000180  ( 0.006747 -0.009226 -0.006996)
  9:    168.80   0.000091    0.46  0.000169  (-0.008058  0.008961  0.004828)
 10:    194.51   0.000172    0.87  0.000275  ( 0.012035  0.003804  0.010767)
 11:    222.80   0.000128    0.65  0.000179  ( 0.001428  0.010302  0.008431)
 12:    329.92   0.000540    2.73  0.000511  ( 0.016361 -0.014503 -0.005758)
 13:    346.26   0.000078    0.39  0.000070  ( 0.007425 -0.002531 -0.002949)
 14:    431.96   0.000234    1.18  0.000169  ( 0.008976 -0.008856 -0.003120)
 15:    473.80   0.000297    1.50  0.000196  ( 0.012337  0.006404 -0.001597)
 16:    521.01   0.000828    4.19  0.000496  (-0.003870 -0.017576 -0.013127)
 17:    545.13   0.000516    2.61  0.000296  ( 0.007637  0.010709  0.011072)
 18:    670.40   0.003220   16.27  0.001499  (-0.032833 -0.005191 -0.019848)
 19:    725.35   0.000303    1.53  0.000130  ( 0.005777  0.003526  0.009199)
 20:    852.86   0.000291    1.47  0.000107  (-0.003321  0.004306  0.008776)
 21:    878.33   0.000573    2.90  0.000204  (-0.001599  0.008367  0.011445)
 22:    938.27   0.007747   39.15  0.002577  ( 0.003400 -0.042920 -0.026890)
 23:    952.26   0.000829    4.19  0.000272  ( 0.015708  0.004318  0.002502)
 24:    961.39   0.008684   43.89  0.002819  (-0.041160 -0.022246 -0.025097)
 25:    982.85   0.001186    5.99  0.000377  ( 0.013147  0.004498  0.013548)
 26:   1013.40   0.002961   14.97  0.000912  ( 0.003102 -0.027016 -0.013131)
 27:   1016.95   0.006432   32.51  0.001974  (-0.008831  0.035059  0.025822)
 28:   1047.69   0.003351   16.93  0.000998  ( 0.019762  0.016187  0.018586)
 29:   1060.41   0.000261    1.32  0.000077  (-0.001102  0.005773 -0.006506)
 30:   1091.27   0.000487    2.46  0.000139  ( 0.010461 -0.005461  0.000223)
 31:   1092.58   0.002936   14.84  0.000839  ( 0.027268 -0.009262  0.003062)
 32:   1173.22   0.000366    1.85  0.000097  ( 0.008673 -0.001046  0.004597)
 33:   1259.95   0.000132    0.67  0.000033  (-0.004829  0.002894 -0.001026)
 34:   1317.56   0.000454    2.29  0.000107  ( 0.010330 -0.000406  0.000791)
 35:   1348.47   0.000024    0.12  0.000005  ( 0.001095 -0.000058 -0.002069)
 36:   1360.98   0.000245    1.24  0.000056  (-0.005398 -0.003213  0.004101)
 37:   1369.89   0.000049    0.25  0.000011  ( 0.000084 -0.000139  0.003330)
 38:   1383.89   0.000924    4.67  0.000208  ( 0.013122 -0.003993  0.004488)
 39:   1446.40   0.002252   11.38  0.000486  (-0.014565 -0.009603  0.013473)
 40:   1475.67   0.000535    2.70  0.000113  (-0.009302  0.001027  0.005049)
 41:   1481.99   0.000460    2.32  0.000097  ( 0.002645 -0.002706 -0.009085)
 42:   1505.10   0.002422   12.24  0.000502  (-0.007466 -0.018129  0.010854)
 43:   1512.75   0.002268   11.46  0.000468  (-0.002130  0.018246  0.011420)
 44:   1528.84   0.002890   14.61  0.000590  ( 0.023365 -0.001430  0.006481)
 45:   1740.23   0.003691   18.65  0.000662  (-0.011274  0.011987 -0.019778)
 46:   1771.29   0.003722   18.81  0.000656  ( 0.019792 -0.012587 -0.010272)
 47:   1796.01   0.001494    7.55  0.000260  (-0.009556  0.005029 -0.011959)
 48:   3086.91   0.003476   17.57  0.000351  (-0.010037 -0.013749 -0.007849)
 49:   3105.63   0.003898   19.70  0.000392  (-0.006062 -0.010515  0.015631)
 50:   3163.57   0.001031    5.21  0.000102  ( 0.003672  0.006280 -0.006985)
 51:   3188.38   0.001548    7.82  0.000152  ( 0.001144 -0.010144 -0.006880)
 52:   3202.67   0.002193   11.08  0.000214  (-0.005249 -0.005179  0.012620)
 53:   3210.02   0.000297    1.50  0.000029  (-0.003433  0.001857 -0.003698)
 54:   3212.51   0.003556   17.97  0.000345  ( 0.018516  0.001622 -0.000050)
 55:   3215.21   0.001690    8.54  0.000164  (-0.002015  0.009765 -0.008037)
 56:   3215.76   0.000609    3.08  0.000059  ( 0.006276  0.000338 -0.004430)
 57:   3222.34   0.003067   15.50  0.000297  ( 0.005503  0.009150 -0.013528)
 58:   3305.84   0.000939    4.74  0.000089  (-0.002294  0.008021 -0.004361)
 59:   3307.31   0.000935    4.72  0.000088  (-0.007070 -0.004067  0.004657)

--------------------------
THERMOCHEMISTRY AT 298.15K
--------------------------

Temperature         ...   298.15 K
Pressure            ...     1.00 atm
Total Mass          ...   108.18 AMU
Quasi RRHO          ...     True
Cut-Off Frequency   ...     1.00 cm^-1

Throughout the following assumptions are being made:
  (1) The electronic state is orbitally nondegenerate
  (2) There are no thermally accessible electronically excited states
  (3) Hindered rotations indicated by low frequency modes are not
      treated as such but are treated as vibrations and this may
      cause some error
  (4) All equations used are the standard statistical mechanics
      equations for an ideal gas
  (5) All vibrations are strictly harmonic

freq.      46.27  E(vib)   ...       0.53
freq.      64.49  E(vib)   ...       0.51
freq.     126.67  E(vib)   ...       0.43
freq.     168.80  E(vib)   ...       0.38
freq.     194.51  E(vib)   ...       0.36
freq.     222.80  E(vib)   ...       0.33
freq.     329.92  E(vib)   ...       0.24
freq.     346.26  E(vib)   ...       0.23
freq.     431.96  E(vib)   ...       0.18
freq.     473.80  E(vib)   ...       0.15
freq.     521.01  E(vib)   ...       0.13
freq.     545.13  E(vib)   ...       0.12
freq.     670.40  E(vib)   ...       0.08
freq.     725.35  E(vib)   ...       0.06
freq.     852.86  E(vib)   ...       0.04
freq.     878.33  E(vib)   ...       0.04
freq.     938.27  E(vib)   ...       0.03
freq.     952.26  E(vib)   ...       0.03
freq.     961.39  E(vib)   ...       0.03
freq.     982.85  E(vib)   ...       0.02
freq.    1013.40  E(vib)   ...       0.02
freq.    1016.95  E(vib)   ...       0.02
freq.    1047.69  E(vib)   ...       0.02
freq.    1060.41  E(vib)   ...       0.02
freq.    1091.27  E(vib)   ...       0.02
freq.    1092.58  E(vib)   ...       0.02
freq.    1173.22  E(vib)   ...       0.01
freq.    1259.95  E(vib)   ...       0.01
freq.    1317.56  E(vib)   ...       0.01
freq.    1348.47  E(vib)   ...       0.01
freq.    1360.98  E(vib)   ...       0.01
freq.    1369.89  E(vib)   ...       0.01
freq.    1383.89  E(vib)   ...       0.00
freq.    1446.40  E(vib)   ...       0.00
freq.    1475.67  E(vib)   ...       0.00
freq.    1481.99  E(vib)   ...       0.00
freq.    1505.10  E(vib)   ...       0.00
freq.    1512.75  E(vib)   ...       0.00
freq.    1528.84  E(vib)   ...       0.00
freq.    1740.23  E(vib)   ...       0.00
freq.    1771.29  E(vib)   ...       0.00
freq.    1796.01  E(vib)   ...       0.00
freq.    3086.91  E(vib)   ...       0.00
freq.    3105.63  E(vib)   ...       0.00
freq.    3163.57  E(vib)   ...       0.00
freq.    3188.38  E(vib)   ...       0.00
freq.    3202.67  E(vib)   ...       0.00
freq.    3210.02  E(vib)   ...       0.00
freq.    3212.51  E(vib)   ...       0.00
freq.    3215.21  E(vib)   ...       0.00
freq.    3215.76  E(vib)   ...       0.00
freq.    3222.34  E(vib)   ...       0.00
freq.    3305.84  E(vib)   ...       0.00
freq.    3307.31  E(vib)   ...       0.00

------------
INNER ENERGY
------------

The inner energy is: U= E(el) + E(ZPE) + E(vib) + E(rot) + E(trans)
    E(el)   - is the total energy from the electronic structure calculation
              = E(kin-el) + E(nuc-el) + E(el-el) + E(nuc-nuc)
    E(ZPE)  - the the zero temperature vibrational energy from the frequency calculation
    E(vib)  - the the finite temperature correction to E(ZPE) due to population
              of excited vibrational states
    E(rot)  - is the rotational thermal energy
    E(trans)- is the translational thermal energy

Summary of contributions to the inner energy U:
Electronic energy                ...    -52.74860452 Eh
Zero point energy                ...      0.17920984 Eh     112.46 kcal/mol
Thermal vibrational correction   ...      0.00653117 Eh       4.10 kcal/mol
Thermal rotational correction    ...      0.00141627 Eh       0.89 kcal/mol
Thermal translational correction ...      0.00141627 Eh       0.89 kcal/mol
-----------------------------------------------------------------------
Total thermal energy                    -52.56003097 Eh

Summary of corrections to the electronic energy:
(perhaps to be used in another calculation)
Total thermal correction                  0.00936371 Eh       5.88 kcal/mol
Non-thermal (ZPE) correction              0.17920984 Eh     112.46 kcal/mol
-----------------------------------------------------------------------
Total correction                          0.18857355 Eh     118.33 kcal/mol

--------
ENTHALPY
--------

The enthalpy is H = U + kB*T
                kB is Boltzmann's constant
Total thermal energy              ...    -52.56003097 Eh
Thermal Enthalpy correction       ...      0.00094421 Eh       0.59 kcal/mol
-----------------------------------------------------------------------
Total Enthalpy                    ...    -52.55908676 Eh

Note: Only C1 symmetry has been detected, increase convergence thresholds
      if your molecule has a higher symmetry. Symmetry factor of 1.0 is
      used for the rotational entropy correction.

Note: Rotational entropy computed according to Herzberg
Infrared and Raman Spectra, Chapter V,1, Van Nostrand Reinhold, 1945
Point Group:  C1, Symmetry Number:   1
Rotational constants in cm-1:     0.170733     0.026766     0.025306

Vibrational entropy computed according to the QRRHO of S. Grimme
Chem.Eur.J. 2012 18 9955 using a reference frequency of 100.0 cm-1

-------
ENTROPY
-------

The entropy contributions are T*S = T*(S(el)+S(vib)+S(rot)+S(trans))
     S(el)   - electronic entropy
     S(vib)  - vibrational entropy
     S(rot)  - rotational entropy
     S(trans)- translational entropy
The entropies will be listed as multiplied by the temperature to get
units of energy

Electronic entropy                ...      0.00000000 Eh      0.00 kcal/mol
Vibrational entropy               ...      0.01134721 Eh      7.12 kcal/mol
Rotational entropy                ...      0.01379031 Eh      8.65 kcal/mol
Translational entropy             ...      0.01898265 Eh     11.91 kcal/mol
-----------------------------------------------------------------------
Final entropy term                ...      0.04412017 Eh     27.69 kcal/mol

In case the symmetry of your molecule has not been determined correctly
or in case you have a reason to use a different symmetry number we print
out the resulting rotational entropy values for sn=1,12:

 non-linear molecules -----------------------------------
|  sn= 1 | S(rot)=       0.01379031 Eh      8.65 kcal/mol|
|  sn= 2 | S(rot)=       0.01313585 Eh      8.24 kcal/mol|
|  sn= 3 | S(rot)=       0.01275302 Eh      8.00 kcal/mol|
|  sn= 4 | S(rot)=       0.01248139 Eh      7.83 kcal/mol|
|  sn= 5 | S(rot)=       0.01227070 Eh      7.70 kcal/mol|
|  sn= 6 | S(rot)=       0.01209856 Eh      7.59 kcal/mol|

                             ****ORCA TERMINATED NORMALLY****
TOTAL RUN TIME: 0 days 0 hours 9 minutes 25 seconds 122 msec
