                         Program Version 6.0.1  -  RELEASE   -
|  1> ! wB97X-3c OPT FREQ TightSCF
|  2> %pal
|  3>   nprocs 40
|  4> end
|  5> * xyz 0 1
|  6> C      1.098541     1.832883     2.257020
|  7> C      1.655169     1.008720     1.117559
|  8> C      0.942599    -0.009944     0.541473
|  9> C     -0.523970    -0.247905     0.882251
| 10> C     -1.395657     0.119614    -0.341387
| 11> C     -0.951222    -0.713846    -1.570697
| 12> C      0.548501    -0.531135    -1.878321
| 13> C      1.477756    -0.814651    -0.661676
| 14> C      2.943355    -0.444357    -1.047009
| 15> C      3.254360     1.027151    -0.811596
| 16> C      3.059918     1.338316     0.664605
| 17> C      1.470643    -2.328690    -0.332073
| 18> C     -2.945339     0.028273    -0.077385
| 19> C     -3.375124    -1.361797     0.432390
| 20> C     -3.393448     1.086504     0.957260
| 21> O     -3.643257     0.266049    -1.278422
| 22> H      0.833849     1.173236     3.110200
| 23> H      0.203868     2.396400     1.917317
| 24> H      1.841362     2.569874     2.628396
| 25> H     -0.662922    -1.312742     1.152352
| 26> H     -0.854404     0.321537     1.767566
| 27> H     -1.175407     1.184437    -0.586834
| 28> H     -1.520491    -0.392254    -2.468933
| 29> H     -1.168947    -1.789575    -1.419334
| 30> H      0.819872    -1.196488    -2.727552
| 31> H      0.698313     0.514006    -2.226692
| 32> H      3.144569    -0.693664    -2.112362
| 33> H      3.669221    -1.039896    -0.447269
| 34> H      2.596309     1.673712    -1.431294
| 35> H      4.309032     1.232905    -1.095974
| 36> H      3.782653     0.753465     1.274284
| 37> H      3.276704     2.417113     0.821613
| 38> H      1.917309    -2.909257    -1.168348
| 39> H      0.453786    -2.731329    -0.163017
| 40> H      2.066461    -2.525056     0.585515
| 41> H     -2.930944    -1.588650     1.423868
| 42> H     -4.480288    -1.397822     0.544820
| 43> H     -3.091074    -2.159295    -0.283209
| 44> H     -3.017125     2.093920     0.678454
| 45> H     -3.033557     0.842356     1.978185
| 46> H     -4.503116     1.134714     0.995616
| 47> H     -3.397856     1.173171    -1.601363
| 48> *
| 49>
| 50>                          ****END OF INPUT****
 Total Charge           Charge          ....    0
 Multiplicity           Mult            ....    1
 Number of Electrons    NEL             ....   92
Dispersion correction           -0.056814867
FINAL SINGLE POINT ENERGY      -117.225797858333
Dispersion correction             ... done (  0.1 sec)
Dispersion correction           -0.058036706
FINAL SINGLE POINT ENERGY      -117.240246343052
Dispersion correction             ... done (  0.1 sec)
Dispersion correction           -0.058181753
FINAL SINGLE POINT ENERGY      -117.241580458370
Dispersion correction             ... done (  0.1 sec)
FINAL SINGLE POINT ENERGY      -117.242060445258
FINAL SINGLE POINT ENERGY      -117.242259131598
FINAL SINGLE POINT ENERGY      -117.242426542576
FINAL SINGLE POINT ENERGY      -117.242597398811
FINAL SINGLE POINT ENERGY      -117.242735245961
FINAL SINGLE POINT ENERGY      -117.242873425684
FINAL SINGLE POINT ENERGY      -117.242949627266
FINAL SINGLE POINT ENERGY      -117.242991054803
FINAL SINGLE POINT ENERGY      -117.243003215081
Dispersion correction             ... done (  0.1 sec)
Dispersion correction           -0.058024147
FINAL SINGLE POINT ENERGY      -117.243006542034
Dispersion correction             ... done (  0.1 sec)
Dispersion correction           -0.058024992
FINAL SINGLE POINT ENERGY      -117.243007498195
Dispersion correction             ... done (  0.0 sec)
                    ***********************HURRAY********************

CARTESIAN COORDINATES (ANGSTROEM)
---------------------------------
  C      1.192033    1.870682    2.246478
  C      1.644436    1.036332    1.084278
  C      0.927469    0.062373    0.519299
  C     -0.513006   -0.199019    0.865572
  C     -1.392654    0.099770   -0.351108
  C     -0.946593   -0.749155   -1.532916
  C      0.530719   -0.563645   -1.836489
  C      1.443147   -0.797579   -0.623695
  C      2.892491   -0.467189   -0.988420
  C      3.214767    1.003358   -0.866186
  C      2.999233    1.435598    0.566346
  C      1.411584   -2.276534   -0.228248
  C     -2.906453    0.009177   -0.077546
  C     -3.385134   -1.402922    0.196407
  C     -3.314980    0.925864    1.067091
  O     -3.606098    0.414763   -1.253893
  H      0.388924    1.424529    2.823770
  H      0.864264    2.858143    1.914047
  H      2.029863    2.033633    2.926105
  H     -0.652658   -1.237891    1.170512
  H     -0.821845    0.415418    1.703044
  H     -1.204528    1.150123   -0.613329
  H     -1.541012   -0.501363   -2.411239
  H     -1.143242   -1.800801   -1.320400
  H      0.827625   -1.239366   -2.642524
  H      0.694190    0.452455   -2.204138
  H      3.094433   -0.835137   -1.996775
  H      3.559830   -1.017789   -0.319900
  H      2.571123    1.591734   -1.523629
  H      4.242679    1.196253   -1.176117
  H      3.779408    1.014665    1.209554
  H      3.097231    2.520172    0.655818
  H      1.870120   -2.876907   -1.015609
  H      0.407650   -2.660813   -0.069586
  H      1.978572   -2.436122    0.689017
  H     -2.863248   -1.838174    1.046026
  H     -4.450740   -1.389038    0.419108
  H     -3.236360   -2.038074   -0.672941
  H     -2.911903    1.931081    0.928647
  H     -2.969660    0.555808    2.029911
  H     -4.401160    0.992879    1.100432
  H     -3.400515    1.332710   -1.436775

 Multiplicity           Mult            ....    1
 Number of Electrons    NEL             ....   92
 Basis Dimension        Dim             ....  338

ORBITAL ENERGIES
----------------

  NO   OCC          E(Eh)            E(eV)
   0   2.0000      -1.145310       -31.1655
   1   2.0000      -1.005881       -27.3714
   2   2.0000      -0.956290       -26.0220
   3   2.0000      -0.931752       -25.3543
   4   2.0000      -0.908045       -24.7092
   5   2.0000      -0.880080       -23.9482
   6   2.0000      -0.859729       -23.3944
   7   2.0000      -0.827570       -22.5193
   8   2.0000      -0.813184       -22.1279
   9   2.0000      -0.809142       -22.0179
  10   2.0000      -0.765078       -20.8188
  11   2.0000      -0.737237       -20.0612
  12   2.0000      -0.711310       -19.3557
  13   2.0000      -0.690281       -18.7835
  14   2.0000      -0.678081       -18.4515
  15   2.0000      -0.623342       -16.9620
  16   2.0000      -0.605193       -16.4681
  17   2.0000      -0.591430       -16.0936
  18   2.0000      -0.585561       -15.9339
  19   2.0000      -0.571540       -15.5524
  20   2.0000      -0.564692       -15.3660
  21   2.0000      -0.557409       -15.1679
  22   2.0000      -0.547071       -14.8866
  23   2.0000      -0.537068       -14.6144
  24   2.0000      -0.529478       -14.4078
  25   2.0000      -0.518614       -14.1122
  26   2.0000      -0.512181       -13.9372
  27   2.0000      -0.504939       -13.7401
  28   2.0000      -0.500788       -13.6271
  29   2.0000      -0.494802       -13.4642
  30   2.0000      -0.485902       -13.2221
  31   2.0000      -0.481377       -13.0989
  32   2.0000      -0.478024       -13.0077
  33   2.0000      -0.473645       -12.8885
  34   2.0000      -0.458714       -12.4822
  35   2.0000      -0.455762       -12.4019
  36   2.0000      -0.448203       -12.1962
  37   2.0000      -0.444046       -12.0831
  38   2.0000      -0.432235       -11.7617
  39   2.0000      -0.428577       -11.6622
  40   2.0000      -0.420202       -11.4343
  41   2.0000      -0.408285       -11.1100
  42   2.0000      -0.395291       -10.7564
  43   2.0000      -0.392283       -10.6746
  44   2.0000      -0.368261       -10.0209
  45   2.0000      -0.318085        -8.6555
  46   0.0000       0.078221         2.1285
  47   0.0000       0.089128         2.4253
  48   0.0000       0.092690         2.5222
  49   0.0000       0.098725         2.6864
  50   0.0000       0.102647         2.7932

MULLIKEN ATOMIC CHARGES
-----------------------
   0 C :   -0.057184
   1 C :   -0.058931
   2 C :   -0.010526
   3 C :    0.005409
   4 C :   -0.048406
   5 C :   -0.002046
   6 C :    0.019977
   7 C :   -0.233578
   8 C :   -0.003519
   9 C :   -0.029579
  10 C :   -0.049050
  11 C :    0.002497
  12 C :   -0.061727
  13 C :   -0.000070
  14 C :   -0.014759
  15 O :   -0.295849
  16 H :    0.035928
  17 H :    0.039725
  18 H :    0.031638
  19 H :    0.028764
  20 H :   -0.002013
  21 H :    0.017337
  22 H :    0.043869
  23 H :    0.008785
  24 H :    0.026681
  25 H :    0.017422
  26 H :    0.028603
  27 H :    0.019995
  28 H :    0.022317
  29 H :    0.031570
  30 H :    0.040086
  31 H :    0.030884
  32 H :    0.027565
  33 H :    0.012146
  34 H :    0.035034
  35 H :    0.028939
  36 H :    0.033909
  37 H :    0.040938
  38 H :    0.020840
  39 H :    0.032561
  40 H :    0.038819
  41 H :    0.144999
Sum of atomic charges:   -0.0000000

LOEWDIN ATOMIC CHARGES
----------------------
   0 C :   -0.108571
   1 C :   -0.040329
   2 C :   -0.022972
   3 C :   -0.062223
   4 C :   -0.056174
   5 C :   -0.071146
   6 C :   -0.069735
   7 C :   -0.066291
   8 C :   -0.070829
   9 C :   -0.081464
  10 C :   -0.083537
  11 C :   -0.098966
  12 C :   -0.050761
  13 C :   -0.094388
  14 C :   -0.103463
  15 O :   -0.059879
  16 H :    0.041678
  17 H :    0.047067
  18 H :    0.050878
  19 H :    0.040652
  20 H :    0.037023
  21 H :    0.043708
  22 H :    0.048435
  23 H :    0.037100
  24 H :    0.045524
  25 H :    0.042366
  26 H :    0.046348
  27 H :    0.047483
  28 H :    0.041775
  29 H :    0.045616
  30 H :    0.047384
  31 H :    0.050012
  32 H :    0.046209
  33 H :    0.034073
  34 H :    0.045752
  35 H :    0.043555
  36 H :    0.050314
  37 H :    0.047560
  38 H :    0.041362
  39 H :    0.045251
  40 H :    0.049401
  41 H :    0.024202

  Mayer bond orders larger than 0.100000
B(  0-C ,  1-C ) :   1.0279 B(  0-C , 16-H ) :   0.9844 B(  0-C , 17-H ) :   0.9756
B(  0-C , 18-H ) :   0.9826 B(  1-C ,  2-C ) :   1.8983 B(  1-C , 10-C ) :   1.0072
B(  2-C ,  3-C ) :   1.0282 B(  2-C ,  7-C ) :   1.0269 B(  3-C ,  4-C ) :   0.9604
B(  3-C , 19-H ) :   0.9766 B(  3-C , 20-H ) :   0.9928 B(  4-C ,  5-C ) :   0.9790
B(  4-C , 12-C ) :   1.0088 B(  4-C , 21-H ) :   0.9833 B(  5-C ,  6-C ) :   1.0043
B(  5-C , 22-H ) :   0.9912 B(  5-C , 23-H ) :   0.9911 B(  6-C ,  7-C ) :   0.9670
B(  6-C , 24-H ) :   0.9939 B(  6-C , 25-H ) :   0.9949 B(  7-C ,  8-C ) :   1.0004
B(  7-C , 11-C ) :   1.0048 B(  8-C ,  9-C ) :   0.9907 B(  8-C , 26-H ) :   0.9962
B(  8-C , 27-H ) :   0.9940 B(  9-C , 10-C ) :   0.9920 B(  9-C , 28-H ) :   0.9926
B(  9-C , 29-H ) :   0.9980 B( 10-C , 30-H ) :   0.9776 B( 10-C , 31-H ) :   0.9902
B( 11-C , 32-H ) :   0.9895 B( 11-C , 33-H ) :   0.9929 B( 11-C , 34-H ) :   0.9898
B( 12-C , 13-C ) :   1.0005 B( 12-C , 14-C ) :   1.0205 B( 12-C , 15-O ) :   0.9936
B( 13-C , 35-H ) :   0.9857 B( 13-C , 36-H ) :   0.9890 B( 13-C , 37-H ) :   0.9869
B( 14-C , 38-H ) :   0.9862 B( 14-C , 39-H ) :   0.9820 B( 14-C , 40-H ) :   0.9876
B( 15-O , 41-H ) :   1.0599

Dispersion correction           -0.058026172
FINAL SINGLE POINT ENERGY      -117.243007853687

DIPOLE MOMENT
-------------

Method             : SCF
Type of density    : Electron Density
Multiplicity       :   1
Irrep              :   0
Energy             :  -117.1849816817994849 Eh
Relativity type    :
Basis              : AO
                                X                 Y                 Z
Electronic contribution:      3.364495927       1.290328539      -2.407103924
Nuclear contribution   :     -2.945755032      -0.904378555       2.728518596
                        -----------------------------------------
Total Dipole Moment    :      0.418740896       0.385949984       0.321414672
                        -----------------------------------------
Magnitude (a.u.)       :      0.653917976
Magnitude (Debye)      :      1.662127402

VIBRATIONAL FREQUENCIES
-----------------------

Scaling factor for frequencies =  1.000000000  (already applied!)

     0:       0.00 cm**-1
     1:       0.00 cm**-1
     2:       0.00 cm**-1
     3:       0.00 cm**-1
     4:       0.00 cm**-1
     5:       0.00 cm**-1
     6:      49.07 cm**-1
     7:      57.36 cm**-1
     8:      86.50 cm**-1
     9:     112.87 cm**-1
    10:     136.80 cm**-1
    11:     164.26 cm**-1
    12:     206.74 cm**-1
    13:     222.51 cm**-1
    14:     238.36 cm**-1
    15:     245.40 cm**-1
    16:     269.73 cm**-1
    17:     279.67 cm**-1
    18:     292.84 cm**-1
    19:     297.39 cm**-1
    20:     330.85 cm**-1
    21:     348.26 cm**-1
    22:     370.48 cm**-1
    23:     378.47 cm**-1
    24:     390.93 cm**-1
    25:     410.26 cm**-1
    26:     423.08 cm**-1
    27:     440.85 cm**-1
    28:     456.61 cm**-1
    29:     475.28 cm**-1
    30:     496.50 cm**-1
    31:     523.02 cm**-1
    32:     538.06 cm**-1
    33:     576.58 cm**-1
    34:     614.23 cm**-1
    35:     673.14 cm**-1
    36:     692.56 cm**-1
    37:     806.07 cm**-1
    38:     814.46 cm**-1
    39:     857.92 cm**-1
    40:     885.83 cm**-1
    41:     892.46 cm**-1
    42:     913.78 cm**-1
    43:     929.28 cm**-1
    44:     961.44 cm**-1
    45:     963.81 cm**-1
    46:     977.98 cm**-1
    47:     988.41 cm**-1
    48:    1015.16 cm**-1
    49:    1018.24 cm**-1
    50:    1034.40 cm**-1
    51:    1043.24 cm**-1
    52:    1056.61 cm**-1
    53:    1066.64 cm**-1
    54:    1072.67 cm**-1
    55:    1091.24 cm**-1
    56:    1107.71 cm**-1
    57:    1146.59 cm**-1
    58:    1151.86 cm**-1
    59:    1179.72 cm**-1
    60:    1181.98 cm**-1
    61:    1204.59 cm**-1
    62:    1222.35 cm**-1
    63:    1233.63 cm**-1
    64:    1244.80 cm**-1
    65:    1264.91 cm**-1
    66:    1269.41 cm**-1
    67:    1272.00 cm**-1
    68:    1292.44 cm**-1
    69:    1316.60 cm**-1
    70:    1331.12 cm**-1
    71:    1338.26 cm**-1
    72:    1365.76 cm**-1
    73:    1379.09 cm**-1
    74:    1393.93 cm**-1
    75:    1407.98 cm**-1
    76:    1411.36 cm**-1
    77:    1414.66 cm**-1
    78:    1431.48 cm**-1
    79:    1434.67 cm**-1
    80:    1439.02 cm**-1
    81:    1440.67 cm**-1
    82:    1452.32 cm**-1
    83:    1452.72 cm**-1
    84:    1466.60 cm**-1
    85:    1506.17 cm**-1
    86:    1507.42 cm**-1
    87:    1508.78 cm**-1
    88:    1511.77 cm**-1
    89:    1515.62 cm**-1
    90:    1519.60 cm**-1
    91:    1521.68 cm**-1
    92:    1526.12 cm**-1
    93:    1530.06 cm**-1
    94:    1532.18 cm**-1
    95:    1535.34 cm**-1
    96:    1541.26 cm**-1
    97:    1546.52 cm**-1
    98:    1547.44 cm**-1
    99:    1792.55 cm**-1
   100:    3034.62 cm**-1
   101:    3074.24 cm**-1
   102:    3083.35 cm**-1
   103:    3085.97 cm**-1
   104:    3093.33 cm**-1
   105:    3095.92 cm**-1
   106:    3097.52 cm**-1
   107:    3101.86 cm**-1
   108:    3115.78 cm**-1
   109:    3116.50 cm**-1
   110:    3121.70 cm**-1
   111:    3126.44 cm**-1
   112:    3138.28 cm**-1
   113:    3139.90 cm**-1
   114:    3156.91 cm**-1
   115:    3162.49 cm**-1
   116:    3174.22 cm**-1
   117:    3180.02 cm**-1
   118:    3186.25 cm**-1
   119:    3204.69 cm**-1
   120:    3209.30 cm**-1
   121:    3211.36 cm**-1
   122:    3215.15 cm**-1
   123:    3224.66 cm**-1
   124:    3231.68 cm**-1
   125:    3944.12 cm**-1

IR SPECTRUM
-----------

 Mode   freq       eps      Int      T**2         TX        TY        TZ
       cm**-1   L/(mol*cm) km/mol    a.u.
----------------------------------------------------------------------------
  6:     49.07   0.000076    0.38  0.000483  ( 0.001013 -0.016860  0.014075)
  7:     57.36   0.000027    0.14  0.000147  (-0.005952  0.010318 -0.002156)
  8:     86.50   0.000069    0.35  0.000248  ( 0.003306 -0.008530  0.012810)
  9:    112.87   0.000053    0.27  0.000147  (-0.010167  0.005493  0.003704)
 10:    136.80   0.000020    0.10  0.000046  ( 0.006745 -0.000254  0.000067)
 11:    164.26   0.000087    0.44  0.000165  ( 0.010754 -0.006138 -0.003389)
 12:    206.74   0.000520    2.63  0.000784  ( 0.024489 -0.012124 -0.006140)
 13:    222.51   0.000420    2.12  0.000589  ( 0.020098 -0.013262 -0.003031)
 14:    238.36   0.002668   13.48  0.003493  ( 0.048376 -0.022598 -0.025341)
 15:    245.40   0.000050    0.25  0.000063  ( 0.002676  0.007482  0.000164)
 16:    269.73   0.000150    0.76  0.000174  (-0.003138 -0.009057  0.009068)
 17:    279.67   0.004248   21.47  0.004740  (-0.056568  0.024711  0.030484)
 18:    292.84   0.014482   73.19  0.015433  ( 0.103718 -0.036449 -0.057853)
 19:    297.39   0.002637   13.32  0.002767  ( 0.044572 -0.018066 -0.021302)
 20:    330.85   0.001189    6.01  0.001122  ( 0.028208 -0.006668 -0.016781)
 21:    348.26   0.000188    0.95  0.000168  (-0.009319 -0.005926  0.006818)
 22:    370.48   0.000684    3.46  0.000576  ( 0.018987 -0.014641 -0.001254)
 23:    378.47   0.000653    3.30  0.000538  (-0.011677  0.000395  0.020045)
 24:    390.93   0.000281    1.42  0.000224  ( 0.006058  0.006607 -0.011988)
 25:    410.26   0.000728    3.68  0.000554  (-0.017491  0.014500 -0.006113)
 26:    423.08   0.000137    0.69  0.000101  (-0.003928  0.007462 -0.005456)
 27:    440.85   0.000109    0.55  0.000077  (-0.004448 -0.004962 -0.005693)
 28:    456.61   0.000436    2.20  0.000298  ( 0.011450 -0.010268  0.007832)
 29:    475.28   0.000150    0.76  0.000098  ( 0.009321  0.000331 -0.003374)
 30:    496.50   0.001539    7.78  0.000968  ( 0.017422 -0.018040  0.018403)
 31:    523.02   0.000749    3.79  0.000447  (-0.019178 -0.007870  0.004154)
 32:    538.06   0.000986    4.98  0.000572  (-0.017700  0.014959  0.005889)
 33:    576.58   0.000294    1.49  0.000159  ( 0.010226  0.000225 -0.007394)
 34:    614.23   0.000220    1.11  0.000112  (-0.001822  0.002681 -0.010062)
 35:    673.14   0.000460    2.32  0.000213  (-0.013662  0.002697 -0.004374)
 36:    692.56   0.000290    1.46  0.000131  ( 0.005740  0.004029  0.009021)
 37:    806.07   0.000071    0.36  0.000028  (-0.001688  0.003327 -0.003699)
 38:    814.46   0.000182    0.92  0.000070  (-0.006450  0.005077 -0.001471)
 39:    857.92   0.000485    2.45  0.000177  ( 0.002823 -0.007416  0.010657)
 40:    885.83   0.000033    0.17  0.000012  (-0.002733 -0.000487  0.002001)
 41:    892.46   0.000272    1.38  0.000095  (-0.007930 -0.000260 -0.005674)
 42:    913.78   0.000208    1.05  0.000071  (-0.000934  0.000597  0.008351)
 43:    929.28   0.000364    1.84  0.000122  (-0.007695 -0.000809 -0.007888)
 44:    961.44   0.000041    0.21  0.000013  ( 0.000872 -0.003510 -0.000459)
 45:    963.81   0.003528   17.83  0.001142  ( 0.019778 -0.013893  0.023623)
 46:    977.98   0.000442    2.23  0.000141  (-0.008767  0.007321 -0.003244)
 47:    988.41   0.001796    9.08  0.000567  (-0.005516 -0.000977 -0.023147)
 48:   1015.16   0.000940    4.75  0.000289  (-0.005427  0.001696  0.016019)
 49:   1018.24   0.001953    9.87  0.000598  ( 0.016367 -0.004937  0.017499)
 50:   1034.40   0.000351    1.78  0.000106  ( 0.008108  0.004639 -0.004335)
 51:   1043.24   0.000527    2.67  0.000158  (-0.003635  0.007393 -0.009481)
 52:   1056.61   0.000920    4.65  0.000272  (-0.006888  0.014579  0.003408)
 53:   1066.64   0.001258    6.36  0.000368  (-0.013084 -0.007133 -0.012083)
 54:   1072.67   0.000501    2.53  0.000146  ( 0.002588  0.009091  0.007507)
 55:   1091.24   0.000065    0.33  0.000019  ( 0.004093 -0.001304  0.000311)
 56:   1107.71   0.000334    1.69  0.000094  ( 0.002702 -0.007538 -0.005488)
 57:   1146.59   0.008737   44.15  0.002378  (-0.026321  0.025906 -0.031842)
 58:   1151.86   0.001556    7.86  0.000421  (-0.014198  0.008556 -0.012110)
 59:   1179.72   0.001254    6.34  0.000332  ( 0.017551  0.003495  0.003385)
 60:   1181.98   0.001935    9.78  0.000511  ( 0.015060 -0.000883  0.016833)
 61:   1204.59   0.003632   18.35  0.000941  ( 0.011538 -0.000422  0.028417)
 62:   1222.35   0.000481    2.43  0.000123  (-0.000501  0.008652 -0.006910)
 63:   1233.63   0.002842   14.36  0.000719  ( 0.021854 -0.011506  0.010442)
 64:   1244.80   0.002569   12.98  0.000644  (-0.018208  0.002645 -0.017482)
 65:   1264.91   0.005002   25.28  0.001234  ( 0.009618 -0.004495  0.033485)
 66:   1269.41   0.000680    3.44  0.000167  ( 0.006636 -0.008178 -0.007506)
 67:   1272.00   0.000056    0.29  0.000014  ( 0.001413  0.002316 -0.002545)
 68:   1292.44   0.004110   20.77  0.000992  ( 0.028891  0.004736 -0.011624)
 69:   1316.60   0.001844    9.32  0.000437  (-0.016495  0.007747 -0.010243)
 70:   1331.12   0.002943   14.87  0.000690  (-0.024050 -0.005405 -0.009074)
 71:   1338.26   0.006282   31.75  0.001465  ( 0.033109 -0.002771  0.019000)
 72:   1365.76   0.000751    3.80  0.000172  (-0.012859  0.002061 -0.001422)
 73:   1379.09   0.000044    0.22  0.000010  (-0.003008  0.000818 -0.000402)
 74:   1393.93   0.002246   11.35  0.000503  (-0.011774  0.008294 -0.017187)
 75:   1407.98   0.000318    1.61  0.000070  ( 0.002046 -0.008029  0.001342)
 76:   1411.36   0.000587    2.96  0.000130  ( 0.004750 -0.008845  0.005378)
 77:   1414.66   0.000043    0.22  0.000009  ( 0.000883  0.001862 -0.002284)
 78:   1431.48   0.000212    1.07  0.000046  (-0.001975 -0.004046 -0.005098)
 79:   1434.67   0.000500    2.53  0.000109  (-0.004587 -0.003216 -0.008798)
 80:   1439.02   0.001610    8.14  0.000349  (-0.008679  0.014538 -0.007909)
 81:   1440.67   0.005871   29.67  0.001272  ( 0.007995 -0.022886 -0.026155)
 82:   1452.32   0.001952    9.86  0.000419  ( 0.010403  0.008729 -0.015329)
 83:   1452.72   0.000589    2.98  0.000127  (-0.003033  0.005757  0.009177)
 84:   1466.60   0.005075   25.65  0.001080  (-0.023134 -0.023288 -0.001544)
 85:   1506.17   0.001220    6.16  0.000253  ( 0.007163  0.005480  0.013091)
 86:   1507.42   0.000061    0.31  0.000013  ( 0.003288 -0.000210 -0.001356)
 87:   1508.78   0.000147    0.75  0.000031  ( 0.001553  0.003079 -0.004314)
 88:   1511.77   0.000636    3.21  0.000131  (-0.009138  0.003237  0.006101)
 89:   1515.62   0.001777    8.98  0.000366  ( 0.011781  0.012773  0.007999)
 90:   1519.60   0.002044   10.33  0.000420  ( 0.009875 -0.016455  0.007180)
 91:   1521.68   0.000315    1.59  0.000065  ( 0.002021 -0.004311  0.006479)
 92:   1526.12   0.000904    4.57  0.000185  ( 0.000520  0.000587  0.013574)
 93:   1530.06   0.002250   11.37  0.000459  (-0.014440  0.005366 -0.014884)
 94:   1532.18   0.003223   16.29  0.000656  ( 0.011614  0.010809 -0.020116)
 95:   1535.34   0.000834    4.21  0.000169  (-0.008135 -0.004315  0.009200)
 96:   1541.26   0.000739    3.73  0.000150  (-0.007692  0.004908 -0.008142)
 97:   1546.52   0.001570    7.94  0.000317  (-0.013503 -0.006893  0.009328)
 98:   1547.44   0.001805    9.12  0.000364  (-0.017916 -0.005891  0.002885)
 99:   1792.55   0.000036    0.18  0.000006  (-0.001913  0.001452 -0.000762)
100:   3034.62   0.004827   24.39  0.000496  ( 0.001056 -0.021625  0.005252)
101:   3074.24   0.008161   41.24  0.000828  ( 0.020246  0.011470  0.016939)
102:   3083.35   0.004234   21.40  0.000428  (-0.009499  0.014675 -0.011087)
103:   3085.97   0.007179   36.28  0.000726  (-0.016204  0.005284  0.020868)
104:   3093.33   0.009126   46.12  0.000921  ( 0.004237  0.022681  0.019703)
105:   3095.92   0.004856   24.54  0.000490  (-0.004875  0.019299  0.009657)
106:   3097.52   0.005817   29.40  0.000586  ( 0.008510 -0.022609  0.001555)
107:   3101.86   0.006594   33.32  0.000663  ( 0.018117  0.007144 -0.016857)
108:   3115.78   0.000503    2.54  0.000050  ( 0.000231 -0.007074  0.000490)
109:   3116.50   0.002548   12.87  0.000255  (-0.000771 -0.000567  0.015943)
110:   3121.70   0.009402   47.51  0.000940  ( 0.015860  0.025639 -0.005567)
111:   3126.44   0.004543   22.96  0.000454  (-0.003553 -0.020951  0.001384)
112:   3138.28   0.005418   27.38  0.000539  (-0.008111 -0.017976  0.012241)
113:   3139.90   0.009188   46.43  0.000913  ( 0.000107 -0.019485 -0.023098)
114:   3156.91   0.007587   38.34  0.000750  (-0.025699  0.007864 -0.005266)
115:   3162.49   0.002422   12.24  0.000239  ( 0.010087 -0.005668  0.010255)
116:   3174.22   0.003589   18.14  0.000353  ( 0.005815 -0.013377  0.011838)
117:   3180.02   0.004174   21.09  0.000410  (-0.000379 -0.003220 -0.019976)
118:   3186.25   0.004205   21.25  0.000412  ( 0.012020  0.014031 -0.008396)
119:   3204.69   0.000525    2.65  0.000051  ( 0.002515 -0.006622  0.000964)
120:   3209.30   0.007059   35.67  0.000686  (-0.025442  0.006248  0.000217)
121:   3211.36   0.001976    9.99  0.000192  (-0.006259 -0.011272  0.005078)
122:   3215.15   0.003427   17.32  0.000333  ( 0.015338  0.008079  0.005666)
123:   3224.66   0.002229   11.27  0.000216  ( 0.002026  0.003861  0.014025)
124:   3231.68   0.004059   20.51  0.000392  ( 0.011676 -0.001216 -0.015943)
125:   3944.12   0.005541   28.00  0.000438  (-0.003346  0.018484 -0.009250)

--------------------------
THERMOCHEMISTRY AT 298.15K
--------------------------

Temperature         ...   298.15 K
Pressure            ...     1.00 atm
Total Mass          ...   222.37 AMU
Quasi RRHO          ...     True
Cut-Off Frequency   ...     1.00 cm^-1

Throughout the following assumptions are being made:
  (1) The electronic state is orbitally nondegenerate
  (2) There are no thermally accessible electronically excited states
  (3) Hindered rotations indicated by low frequency modes are not
      treated as such but are treated as vibrations and this may
      cause some error
  (4) All equations used are the standard statistical mechanics
      equations for an ideal gas
  (5) All vibrations are strictly harmonic

freq.      49.07  E(vib)   ...       0.53
freq.      57.36  E(vib)   ...       0.51
freq.      86.50  E(vib)   ...       0.48
freq.     112.87  E(vib)   ...       0.45
freq.     136.80  E(vib)   ...       0.42
freq.     164.26  E(vib)   ...       0.39
freq.     206.74  E(vib)   ...       0.35
freq.     222.51  E(vib)   ...       0.33
freq.     238.36  E(vib)   ...       0.32
freq.     245.40  E(vib)   ...       0.31
freq.     269.73  E(vib)   ...       0.29
freq.     279.67  E(vib)   ...       0.28
freq.     292.84  E(vib)   ...       0.27
freq.     297.39  E(vib)   ...       0.27
freq.     330.85  E(vib)   ...       0.24
freq.     348.26  E(vib)   ...       0.23
freq.     370.48  E(vib)   ...       0.21
freq.     378.47  E(vib)   ...       0.21
freq.     390.93  E(vib)   ...       0.20
freq.     410.26  E(vib)   ...       0.19
freq.     423.08  E(vib)   ...       0.18
freq.     440.85  E(vib)   ...       0.17
freq.     456.61  E(vib)   ...       0.16
freq.     475.28  E(vib)   ...       0.15
freq.     496.50  E(vib)   ...       0.14
freq.     523.02  E(vib)   ...       0.13
freq.     538.06  E(vib)   ...       0.12
freq.     576.58  E(vib)   ...       0.11
freq.     614.23  E(vib)   ...       0.10
freq.     673.14  E(vib)   ...       0.08
freq.     692.56  E(vib)   ...       0.07
freq.     806.07  E(vib)   ...       0.05
freq.     814.46  E(vib)   ...       0.05
freq.     857.92  E(vib)   ...       0.04
freq.     885.83  E(vib)   ...       0.04
freq.     892.46  E(vib)   ...       0.03
freq.     913.78  E(vib)   ...       0.03
freq.     929.28  E(vib)   ...       0.03
freq.     961.44  E(vib)   ...       0.03
freq.     963.81  E(vib)   ...       0.03
freq.     977.98  E(vib)   ...       0.03
freq.     988.41  E(vib)   ...       0.02
freq.    1015.16  E(vib)   ...       0.02
freq.    1018.24  E(vib)   ...       0.02
freq.    1034.40  E(vib)   ...       0.02
freq.    1043.24  E(vib)   ...       0.02
freq.    1056.61  E(vib)   ...       0.02
freq.    1066.64  E(vib)   ...       0.02
freq.    1072.67  E(vib)   ...       0.02
freq.    1091.24  E(vib)   ...       0.02
freq.    1107.71  E(vib)   ...       0.02
freq.    1146.59  E(vib)   ...       0.01
freq.    1151.86  E(vib)   ...       0.01
freq.    1179.72  E(vib)   ...       0.01
freq.    1181.98  E(vib)   ...       0.01
freq.    1204.59  E(vib)   ...       0.01
freq.    1222.35  E(vib)   ...       0.01
freq.    1233.63  E(vib)   ...       0.01
freq.    1244.80  E(vib)   ...       0.01
freq.    1264.91  E(vib)   ...       0.01
freq.    1269.41  E(vib)   ...       0.01
freq.    1272.00  E(vib)   ...       0.01
freq.    1292.44  E(vib)   ...       0.01
freq.    1316.60  E(vib)   ...       0.01
freq.    1331.12  E(vib)   ...       0.01
freq.    1338.26  E(vib)   ...       0.01
freq.    1365.76  E(vib)   ...       0.01
freq.    1379.09  E(vib)   ...       0.01
freq.    1393.93  E(vib)   ...       0.00
freq.    1407.98  E(vib)   ...       0.00
freq.    1411.36  E(vib)   ...       0.00
freq.    1414.66  E(vib)   ...       0.00
freq.    1431.48  E(vib)   ...       0.00
freq.    1434.67  E(vib)   ...       0.00
freq.    1439.02  E(vib)   ...       0.00
freq.    1440.67  E(vib)   ...       0.00
freq.    1452.32  E(vib)   ...       0.00
freq.    1452.72  E(vib)   ...       0.00
freq.    1466.60  E(vib)   ...       0.00
freq.    1506.17  E(vib)   ...       0.00
freq.    1507.42  E(vib)   ...       0.00
freq.    1508.78  E(vib)   ...       0.00
freq.    1511.77  E(vib)   ...       0.00
freq.    1515.62  E(vib)   ...       0.00
freq.    1519.60  E(vib)   ...       0.00
freq.    1521.68  E(vib)   ...       0.00
freq.    1526.12  E(vib)   ...       0.00
freq.    1530.06  E(vib)   ...       0.00
freq.    1532.18  E(vib)   ...       0.00
freq.    1535.34  E(vib)   ...       0.00
freq.    1541.26  E(vib)   ...       0.00
freq.    1546.52  E(vib)   ...       0.00
freq.    1547.44  E(vib)   ...       0.00
freq.    1792.55  E(vib)   ...       0.00
freq.    3034.62  E(vib)   ...       0.00
freq.    3074.24  E(vib)   ...       0.00
freq.    3083.35  E(vib)   ...       0.00
freq.    3085.97  E(vib)   ...       0.00
freq.    3093.33  E(vib)   ...       0.00
freq.    3095.92  E(vib)   ...       0.00
freq.    3097.52  E(vib)   ...       0.00
freq.    3101.86  E(vib)   ...       0.00
freq.    3115.78  E(vib)   ...       0.00
freq.    3116.50  E(vib)   ...       0.00
freq.    3121.70  E(vib)   ...       0.00
freq.    3126.44  E(vib)   ...       0.00
freq.    3138.28  E(vib)   ...       0.00
freq.    3139.90  E(vib)   ...       0.00
freq.    3156.91  E(vib)   ...       0.00
freq.    3162.49  E(vib)   ...       0.00
freq.    3174.22  E(vib)   ...       0.00
freq.    3180.02  E(vib)   ...       0.00
freq.    3186.25  E(vib)   ...       0.00
freq.    3204.69  E(vib)   ...       0.00
freq.    3209.30  E(vib)   ...       0.00
freq.    3211.36  E(vib)   ...       0.00
freq.    3215.15  E(vib)   ...       0.00
freq.    3224.66  E(vib)   ...       0.00
freq.    3231.68  E(vib)   ...       0.00
freq.    3944.12  E(vib)   ...       0.00

------------
INNER ENERGY
------------

The inner energy is: U= E(el) + E(ZPE) + E(vib) + E(rot) + E(trans)
    E(el)   - is the total energy from the electronic structure calculation
              = E(kin-el) + E(nuc-el) + E(el-el) + E(nuc-nuc)
    E(ZPE)  - the the zero temperature vibrational energy from the frequency calculation
    E(vib)  - the the finite temperature correction to E(ZPE) due to population
              of excited vibrational states
    E(rot)  - is the rotational thermal energy
    E(trans)- is the translational thermal energy

Summary of contributions to the inner energy U:
Electronic energy                ...   -117.24300785 Eh
Zero point energy                ...      0.39436297 Eh     247.47 kcal/mol
Thermal vibrational correction   ...      0.01376381 Eh       8.64 kcal/mol
Thermal rotational correction    ...      0.00141627 Eh       0.89 kcal/mol
Thermal translational correction ...      0.00141627 Eh       0.89 kcal/mol
-----------------------------------------------------------------------
Total thermal energy                   -116.83204853 Eh

Rotational constants in cm-1:     0.029645     0.012006     0.010158

                             ****ORCA TERMINATED NORMALLY****
TOTAL RUN TIME: 0 days 0 hours 37 minutes 11 seconds 593 msec
