                         Program Version 6.0.1  -  RELEASE   -
|  1> ! wB97X-3c OPT FREQ TightSCF
|  2> %pal
|  3>   nprocs 40
|  4> end
|  5> * xyz 0 1
|  6> C      4.678144     0.385865     1.477795
|  7> C      3.516713    -0.047019     0.621814
|  8> C      2.503583     0.827334     0.425007
|  9> C      1.272349     0.553418    -0.403164
| 10> C      0.194686    -0.161519     0.435572
| 11> C     -1.220239    -0.291834    -0.234785
| 12> C     -2.131327    -1.317940     0.513233
| 13> C     -3.532139    -1.085403    -0.071765
| 14> C     -3.565030     0.421358     0.115385
| 15> C     -2.124877     0.909291     0.047870
| 16> C     -2.789296     0.685120     1.399621
| 17> C     -2.338397    -0.680354     1.893719
| 18> C     -1.854788     2.350569    -0.377184
| 19> C     -1.094905    -0.594442    -1.754021
| 20> C      3.580150    -1.404308    -0.047665
| 21> O      4.322373    -1.321520    -1.233123
| 22> H      4.328327     0.581069     2.513573
| 23> H      5.466634    -0.395233     1.514179
| 24> H      5.127949     1.313260     1.063720
| 25> H      2.554739     1.801424     0.905925
| 26> H      0.876567     1.528537    -0.754188
| 27> H      1.542040    -0.036196    -1.302925
| 28> H      0.559652    -1.178830     0.690719
| 29> H      0.111377     0.405302     1.387307
| 30> H     -1.785243    -2.373406     0.520981
| 31> H     -3.652008    -1.399037    -1.125896
| 32> H     -4.332238    -1.583328     0.521481
| 33> H     -4.411559     1.101792    -0.114784
| 34> H     -3.110177     1.545908     2.023218
| 35> H     -1.423277    -0.638081     2.517002
| 36> H     -3.136799    -1.182652     2.485298
| 37> H     -0.984984     2.746967     0.185734
| 38> H     -2.732495     2.999678    -0.171478
| 39> H     -1.634454     2.384081    -1.463872
| 40> H     -0.525901     0.201786    -2.274189
| 41> H     -2.064187    -0.619107    -2.283674
| 42> H     -0.579397    -1.566376    -1.905527
| 43> H      4.084877    -2.123340     0.631341
| 44> H      2.575020    -1.832855    -0.245100
| 45> H      3.728535    -0.909976    -1.913399
| 46> *
| 47>
| 48>                          ****END OF INPUT****
 Total Charge           Charge          ....    0
 Multiplicity           Mult            ....    1
 Number of Electrons    NEL             ....   90
Dispersion correction           -0.052235021
FINAL SINGLE POINT ENERGY      -115.946242489009
Dispersion correction             ... done (  0.1 sec)
Dispersion correction           -0.052942316
FINAL SINGLE POINT ENERGY      -115.960813229633
Dispersion correction             ... done (  0.1 sec)
Dispersion correction           -0.053023740
FINAL SINGLE POINT ENERGY      -115.963410947370
Dispersion correction             ... done (  0.1 sec)
FINAL SINGLE POINT ENERGY      -115.965073410672
FINAL SINGLE POINT ENERGY      -115.965619095149
FINAL SINGLE POINT ENERGY      -115.965946237259
FINAL SINGLE POINT ENERGY      -115.966510658672
FINAL SINGLE POINT ENERGY      -115.967182500834
FINAL SINGLE POINT ENERGY      -115.967746029672
FINAL SINGLE POINT ENERGY      -115.968356801926
FINAL SINGLE POINT ENERGY      -115.968454988703
FINAL SINGLE POINT ENERGY      -115.968480095623
FINAL SINGLE POINT ENERGY      -115.968486533998
FINAL SINGLE POINT ENERGY      -115.968489866552
FINAL SINGLE POINT ENERGY      -115.968491726250
Dispersion correction             ... done (  0.1 sec)
Dispersion correction           -0.052721291
FINAL SINGLE POINT ENERGY      -115.968493430873
Dispersion correction             ... done (  0.1 sec)
Dispersion correction           -0.052720054
FINAL SINGLE POINT ENERGY      -115.968494155966
Dispersion correction             ... done (  0.1 sec)
                    ***********************HURRAY********************

CARTESIAN COORDINATES (ANGSTROEM)
---------------------------------
  C      4.663052    0.304447    1.470404
  C      3.539929   -0.076518    0.556332
  C      2.403939    0.614770    0.515420
  C      1.193916    0.363347   -0.327364
  C      0.062876   -0.239069    0.502771
  C     -1.317591   -0.319575   -0.164493
  C     -2.269892   -1.251242    0.629783
  C     -3.636359   -0.990185   -0.009696
  C     -3.589517    0.517434    0.093427
  C     -2.152851    0.949943    0.023697
  C     -2.829099    0.827217    1.357995
  C     -2.446583   -0.508198    1.958143
  C     -1.761323    2.280464   -0.536821
  C     -1.187180   -0.724480   -1.625510
  C      3.809893   -1.273267   -0.307517
  O      4.826995   -1.024160   -1.261610
  H      4.851781   -0.487592    2.197024
  H      5.585427    0.444317    0.907637
  H      4.444738    1.221224    2.013611
  H      2.313466    1.457258    1.196597
  H      0.873080    1.313398   -0.757868
  H      1.431170   -0.284532   -1.168315
  H      0.370961   -1.244547    0.804587
  H     -0.018163    0.338443    1.423694
  H     -1.954652   -2.290778    0.693862
  H     -3.733203   -1.361262   -1.026876
  H     -4.444555   -1.421199    0.582973
  H     -4.385790    1.157612   -0.257453
  H     -3.057082    1.698227    1.954977
  H     -1.549647   -0.476449    2.572071
  H     -3.249924   -0.940187    2.556504
  H     -0.847148    2.657897   -0.078624
  H     -2.543277    3.017051   -0.353739
  H     -1.606011    2.230484   -1.615053
  H     -0.584362   -0.010331   -2.183312
  H     -2.152011   -0.775234   -2.121636
  H     -0.707937   -1.700832   -1.716447
  H      4.185424   -2.090829    0.308070
  H      2.903329   -1.629164   -0.797224
  H      4.564180   -0.273900   -1.796270

 Multiplicity           Mult            ....    1
 Number of Electrons    NEL             ....   90
 Basis Dimension        Dim             ....  328

ORBITAL ENERGIES
----------------

  NO   OCC          E(Eh)            E(eV)
   0   2.0000      -1.145932       -31.1824
   1   2.0000      -1.069924       -29.1141
   2   2.0000      -0.964253       -26.2386
   3   2.0000      -0.933050       -25.3896
   4   2.0000      -0.909517       -24.7492
   5   2.0000      -0.880905       -23.9706
   6   2.0000      -0.850041       -23.1308
   7   2.0000      -0.828050       -22.5324
   8   2.0000      -0.817507       -22.2455
   9   2.0000      -0.806137       -21.9361
  10   2.0000      -0.779070       -21.1996
  11   2.0000      -0.731500       -19.9051
  12   2.0000      -0.684790       -18.6341
  13   2.0000      -0.669429       -18.2161
  14   2.0000      -0.665769       -18.1165
  15   2.0000      -0.631721       -17.1900
  16   2.0000      -0.623873       -16.9764
  17   2.0000      -0.614536       -16.7224
  18   2.0000      -0.597654       -16.2630
  19   2.0000      -0.586141       -15.9497
  20   2.0000      -0.570513       -15.5245
  21   2.0000      -0.559266       -15.2184
  22   2.0000      -0.551969       -15.0198
  23   2.0000      -0.544415       -14.8143
  24   2.0000      -0.523588       -14.2475
  25   2.0000      -0.514103       -13.9895
  26   2.0000      -0.510292       -13.8858
  27   2.0000      -0.508640       -13.8408
  28   2.0000      -0.500279       -13.6133
  29   2.0000      -0.494179       -13.4473
  30   2.0000      -0.487143       -13.2558
  31   2.0000      -0.484208       -13.1760
  32   2.0000      -0.477646       -12.9974
  33   2.0000      -0.462749       -12.5920
  34   2.0000      -0.455655       -12.3990
  35   2.0000      -0.447640       -12.1809
  36   2.0000      -0.444693       -12.1007
  37   2.0000      -0.435398       -11.8478
  38   2.0000      -0.429365       -11.6836
  39   2.0000      -0.409540       -11.1441
  40   2.0000      -0.402417       -10.9503
  41   2.0000      -0.383954       -10.4479
  42   2.0000      -0.361064        -9.8251
  43   2.0000      -0.358633        -9.7589
  44   2.0000      -0.341925        -9.3043
  45   0.0000       0.076698         2.0871
  46   0.0000       0.088067         2.3964
  47   0.0000       0.091312         2.4847
  48   0.0000       0.094294         2.5659
  49   0.0000       0.099506         2.7077

MULLIKEN ATOMIC CHARGES
-----------------------
   0 C :   -0.038272
   1 C :   -0.067441
   2 C :   -0.016644
   3 C :   -0.064220
   4 C :    0.001640
   5 C :   -0.214879
   6 C :   -0.050515
   7 C :   -0.021709
   8 C :   -0.027071
   9 C :   -0.034780
  10 C :   -0.031577
  11 C :   -0.025826
  12 C :   -0.019888
  13 C :    0.013949
  14 C :    0.105412
  15 O :   -0.316364
  16 H :    0.035912
  17 H :    0.046276
  18 H :    0.026267
  19 H :    0.009951
  20 H :    0.036328
  21 H :    0.023873
  22 H :    0.028331
  23 H :    0.033633
  24 H :    0.036275
  25 H :    0.026591
  26 H :    0.032230
  27 H :    0.028510
  28 H :    0.029021
  29 H :    0.027335
  30 H :    0.031342
  31 H :    0.026337
  32 H :    0.026394
  33 H :    0.030897
  34 H :    0.017171
  35 H :    0.020636
  36 H :    0.028588
  37 H :    0.044260
  38 H :    0.013401
  39 H :    0.148629
Sum of atomic charges:   -0.0000000

LOEWDIN ATOMIC CHARGES
----------------------
   0 C :   -0.105616
   1 C :   -0.058307
   2 C :   -0.041059
   3 C :   -0.089961
   4 C :   -0.063972
   5 C :   -0.049193
   6 C :   -0.034540
   7 C :   -0.066293
   8 C :   -0.034059
   9 C :   -0.052658
  10 C :   -0.034909
  11 C :   -0.065270
  12 C :   -0.105887
  13 C :   -0.098641
  14 C :   -0.043850
  15 O :   -0.073951
  16 H :    0.048492
  17 H :    0.051327
  18 H :    0.048144
  19 H :    0.040957
  20 H :    0.045499
  21 H :    0.038189
  22 H :    0.045959
  23 H :    0.045657
  24 H :    0.036495
  25 H :    0.035049
  26 H :    0.043631
  27 H :    0.033504
  28 H :    0.033409
  29 H :    0.037285
  30 H :    0.043190
  31 H :    0.042898
  32 H :    0.050075
  33 H :    0.045663
  34 H :    0.041226
  35 H :    0.042210
  36 H :    0.045429
  37 H :    0.057865
  38 H :    0.039151
  39 H :    0.026863

  Mayer bond orders larger than 0.100000
B(  0-C ,  1-C ) :   1.0273 B(  0-C , 16-H ) :   0.9783 B(  0-C , 17-H ) :   0.9747
B(  0-C , 18-H ) :   0.9930 B(  1-C ,  2-C ) :   1.8847 B(  1-C , 14-C ) :   1.0246
B(  2-C ,  3-C ) :   1.0373 B(  2-C , 19-H ) :   0.9959 B(  3-C ,  4-C ) :   0.9684
B(  3-C , 20-H ) :   0.9846 B(  3-C , 21-H ) :   0.9960 B(  4-C ,  5-C ) :   1.0038
B(  4-C , 22-H ) :   0.9909 B(  4-C , 23-H ) :   0.9903 B(  5-C ,  6-C ) :   0.9940
B(  5-C ,  9-C ) :   0.9918 B(  5-C , 13-C ) :   1.0141 B(  6-C ,  7-C ) :   0.9919
B(  6-C , 11-C ) :   0.9874 B(  6-C , 24-H ) :   0.9962 B(  7-C ,  8-C ) :   1.0104
B(  7-C , 25-H ) :   0.9989 B(  7-C , 26-H ) :   0.9938 B(  8-C ,  9-C ) :   0.9367
B(  8-C , 10-C ) :   0.9596 B(  8-C , 27-H ) :   1.0020 B(  9-C , 10-C ) :   0.9361
B(  9-C , 12-C ) :   1.0354 B( 10-C , 11-C ) :   1.0118 B( 10-C , 28-H ) :   1.0020
B( 11-C , 29-H ) :   0.9987 B( 11-C , 30-H ) :   0.9950 B( 12-C , 31-H ) :   0.9835
B( 12-C , 32-H ) :   0.9848 B( 12-C , 33-H ) :   0.9838 B( 13-C , 34-H ) :   0.9880
B( 13-C , 35-H ) :   0.9898 B( 13-C , 36-H ) :   0.9874 B( 14-C , 15-O ) :   0.9465
B( 14-C , 37-H ) :   0.9953 B( 14-C , 38-H ) :   1.0066 B( 15-O , 39-H ) :   1.0649

Dispersion correction           -0.052720518
FINAL SINGLE POINT ENERGY      -115.968494475187

DIPOLE MOMENT
-------------

Method             : SCF
Type of density    : Electron Density
Multiplicity       :   1
Irrep              :   0
Energy             :  -115.9157739570360093 Eh
Relativity type    :
Basis              : AO
                                X                 Y                 Z
Electronic contribution:     -6.006006020      -0.457282585       2.201870210
Nuclear contribution   :      5.333206054       0.831749467      -2.093407122
                        -----------------------------------------
Total Dipole Moment    :     -0.672799967       0.374466882       0.108463088
                        -----------------------------------------
Magnitude (a.u.)       :      0.777592105
Magnitude (Debye)      :      1.976482058

VIBRATIONAL FREQUENCIES
-----------------------

Scaling factor for frequencies =  1.000000000  (already applied!)

     0:       0.00 cm**-1
     1:       0.00 cm**-1
     2:       0.00 cm**-1
     3:       0.00 cm**-1
     4:       0.00 cm**-1
     5:       0.00 cm**-1
     6:      18.23 cm**-1
     7:      36.96 cm**-1
     8:      55.26 cm**-1
     9:      74.23 cm**-1
    10:     102.05 cm**-1
    11:     156.26 cm**-1
    12:     183.00 cm**-1
    13:     190.94 cm**-1
    14:     234.89 cm**-1
    15:     241.59 cm**-1
    16:     245.46 cm**-1
    17:     250.10 cm**-1
    18:     270.33 cm**-1
    19:     278.15 cm**-1
    20:     312.32 cm**-1
    21:     330.52 cm**-1
    22:     378.75 cm**-1
    23:     387.54 cm**-1
    24:     418.44 cm**-1
    25:     445.23 cm**-1
    26:     485.10 cm**-1
    27:     498.75 cm**-1
    28:     553.90 cm**-1
    29:     572.16 cm**-1
    30:     605.37 cm**-1
    31:     609.97 cm**-1
    32:     663.48 cm**-1
    33:     719.86 cm**-1
    34:     774.65 cm**-1
    35:     798.69 cm**-1
    36:     846.21 cm**-1
    37:     865.02 cm**-1
    38:     892.98 cm**-1
    39:     902.39 cm**-1
    40:     904.39 cm**-1
    41:     928.57 cm**-1
    42:     948.69 cm**-1
    43:     956.78 cm**-1
    44:     971.19 cm**-1
    45:     977.70 cm**-1
    46:     988.36 cm**-1
    47:    1013.29 cm**-1
    48:    1020.36 cm**-1
    49:    1025.19 cm**-1
    50:    1047.47 cm**-1
    51:    1054.07 cm**-1
    52:    1071.17 cm**-1
    53:    1083.75 cm**-1
    54:    1093.18 cm**-1
    55:    1093.73 cm**-1
    56:    1105.93 cm**-1
    57:    1134.90 cm**-1
    58:    1144.88 cm**-1
    59:    1156.05 cm**-1
    60:    1180.80 cm**-1
    61:    1185.57 cm**-1
    62:    1198.24 cm**-1
    63:    1225.13 cm**-1
    64:    1229.52 cm**-1
    65:    1232.85 cm**-1
    66:    1246.30 cm**-1
    67:    1297.55 cm**-1
    68:    1302.44 cm**-1
    69:    1315.35 cm**-1
    70:    1322.61 cm**-1
    71:    1331.22 cm**-1
    72:    1351.30 cm**-1
    73:    1359.82 cm**-1
    74:    1364.69 cm**-1
    75:    1377.07 cm**-1
    76:    1399.93 cm**-1
    77:    1410.25 cm**-1
    78:    1434.30 cm**-1
    79:    1442.52 cm**-1
    80:    1448.47 cm**-1
    81:    1449.75 cm**-1
    82:    1454.91 cm**-1
    83:    1500.16 cm**-1
    84:    1506.83 cm**-1
    85:    1508.21 cm**-1
    86:    1516.69 cm**-1
    87:    1522.21 cm**-1
    88:    1526.54 cm**-1
    89:    1528.30 cm**-1
    90:    1532.32 cm**-1
    91:    1534.91 cm**-1
    92:    1546.04 cm**-1
    93:    1556.55 cm**-1
    94:    1565.60 cm**-1
    95:    1801.81 cm**-1
    96:    3085.13 cm**-1
    97:    3093.90 cm**-1
    98:    3101.49 cm**-1
    99:    3103.15 cm**-1
   100:    3115.06 cm**-1
   101:    3120.79 cm**-1
   102:    3121.89 cm**-1
   103:    3125.07 cm**-1
   104:    3150.37 cm**-1
   105:    3169.97 cm**-1
   106:    3173.18 cm**-1
   107:    3179.02 cm**-1
   108:    3181.08 cm**-1
   109:    3183.16 cm**-1
   110:    3183.98 cm**-1
   111:    3186.33 cm**-1
   112:    3189.56 cm**-1
   113:    3191.78 cm**-1
   114:    3193.94 cm**-1
   115:    3211.44 cm**-1
   116:    3218.70 cm**-1
   117:    3253.33 cm**-1
   118:    3263.46 cm**-1
   119:    3953.92 cm**-1

IR SPECTRUM
-----------

 Mode   freq       eps      Int      T**2         TX        TY        TZ
       cm**-1   L/(mol*cm) km/mol    a.u.
----------------------------------------------------------------------------
  6:     18.23   0.000098    0.50  0.001685  ( 0.016372  0.028305 -0.024823)
  7:     36.96   0.000108    0.55  0.000914  (-0.007857 -0.007372 -0.028244)
  8:     55.26   0.000194    0.98  0.001098  (-0.004596 -0.006180  0.032225)
  9:     74.23   0.000207    1.05  0.000871  ( 0.007181  0.005164 -0.028161)
 10:    102.05   0.000147    0.74  0.000449  ( 0.006368  0.012256 -0.016077)
 11:    156.26   0.000111    0.56  0.000221  (-0.004039 -0.005800  0.013082)
 12:    183.00   0.000018    0.09  0.000030  ( 0.003026 -0.003874  0.002500)
 13:    190.94   0.000023    0.12  0.000037  (-0.001455 -0.001187 -0.005807)
 14:    234.89   0.000136    0.69  0.000180  (-0.011667 -0.005922  0.003024)
 15:    241.59   0.000112    0.57  0.000144  (-0.010605 -0.000904 -0.005588)
 16:    245.46   0.000013    0.07  0.000017  ( 0.002732 -0.002913  0.000928)
 17:    250.10   0.000632    3.20  0.000789  (-0.016809 -0.015759 -0.016066)
 18:    270.33   0.000020    0.10  0.000023  (-0.002532  0.002413  0.003329)
 19:    278.15   0.000292    1.48  0.000328  ( 0.004690  0.001720  0.017401)
 20:    312.32   0.020342  102.80  0.020325  (-0.041012 -0.090859 -0.101919)
 21:    330.52   0.000134    0.68  0.000127  ( 0.003860 -0.009021 -0.005506)
 22:    378.75   0.000573    2.90  0.000472  (-0.003379  0.003997  0.021091)
 23:    387.54   0.000375    1.90  0.000302  ( 0.009443  0.002301  0.014412)
 24:    418.44   0.001198    6.05  0.000893  ( 0.001952 -0.009221 -0.028366)
 25:    445.23   0.000806    4.07  0.000565  (-0.010315 -0.016668 -0.013451)
 26:    485.10   0.000340    1.72  0.000219  ( 0.010584  0.008315  0.006120)
 27:    498.75   0.000103    0.52  0.000064  (-0.004911  0.000294  0.006319)
 28:    553.90   0.000581    2.94  0.000327  (-0.014306  0.010748  0.002670)
 29:    572.16   0.000513    2.59  0.000280  (-0.014303 -0.004596 -0.007346)
 30:    605.37   0.000233    1.18  0.000120  ( 0.004291  0.008156 -0.005911)
 31:    609.97   0.000632    3.20  0.000324  (-0.005194 -0.016887  0.003379)
 32:    663.48   0.000554    2.80  0.000261  (-0.012395  0.007014  0.007613)
 33:    719.86   0.000045    0.22  0.000019  (-0.003493  0.001942 -0.001824)
 34:    774.65   0.000058    0.29  0.000023  (-0.001660 -0.004348 -0.001347)
 35:    798.69   0.000587    2.97  0.000229  (-0.003285 -0.014787  0.000026)
 36:    846.21   0.001201    6.07  0.000443  ( 0.013492  0.013442 -0.008960)
 37:    865.02   0.001984   10.03  0.000716  ( 0.021093 -0.012692 -0.010471)
 38:    892.98   0.001344    6.79  0.000470  ( 0.015402  0.008546 -0.012625)
 39:    902.39   0.001138    5.75  0.000393  (-0.010616 -0.002990 -0.016486)
 40:    904.39   0.000512    2.59  0.000177  ( 0.000048  0.012457 -0.004637)
 41:    928.57   0.000900    4.55  0.000303  ( 0.015406  0.001808 -0.007872)
 42:    948.69   0.000218    1.10  0.000072  ( 0.004123 -0.007188  0.001784)
 43:    956.78   0.000074    0.38  0.000024  (-0.001410 -0.003992 -0.002524)
 44:    971.19   0.004348   21.97  0.001397  (-0.022926 -0.016933  0.024179)
 45:    977.70   0.001627    8.22  0.000519  ( 0.012112  0.011357 -0.015613)
 46:    988.36   0.000197    1.00  0.000062  (-0.003121 -0.003118 -0.006548)
 47:   1013.29   0.001035    5.23  0.000319  (-0.014149 -0.010784  0.001458)
 48:   1020.36   0.000712    3.60  0.000218  ( 0.009713  0.004403 -0.010198)
 49:   1025.19   0.000010    0.05  0.000003  (-0.000944  0.001136 -0.000931)
 50:   1047.47   0.001965    9.93  0.000585  (-0.020801  0.008796  0.008678)
 51:   1054.07   0.002267   11.46  0.000671  (-0.023323  0.004190  0.010472)
 52:   1071.17   0.000205    1.04  0.000060  ( 0.001897  0.000622  0.007470)
 53:   1083.75   0.010167   51.38  0.002928  ( 0.042396  0.005903 -0.033095)
 54:   1093.18   0.000292    1.48  0.000083  ( 0.006696  0.004363 -0.004413)
 55:   1093.73   0.001889    9.55  0.000539  ( 0.019529 -0.003942 -0.011920)
 56:   1105.93   0.015450   78.08  0.004360  ( 0.052030 -0.003086 -0.040532)
 57:   1134.90   0.000772    3.90  0.000212  (-0.008467  0.005656 -0.010417)
 58:   1144.88   0.000835    4.22  0.000228  (-0.009717 -0.004169 -0.010766)
 59:   1156.05   0.002779   14.04  0.000750  ( 0.024023 -0.008480 -0.010053)
 60:   1180.80   0.000013    0.07  0.000003  ( 0.000605  0.001250  0.001239)
 61:   1185.57   0.000906    4.58  0.000238  ( 0.012174 -0.000561 -0.009480)
 62:   1198.24   0.000299    1.51  0.000078  ( 0.006618 -0.002048 -0.005470)
 63:   1225.13   0.001292    6.53  0.000329  (-0.008902  0.002034  0.015676)
 64:   1229.52   0.000687    3.47  0.000174  (-0.013155  0.000254  0.001084)
 65:   1232.85   0.000913    4.62  0.000231  ( 0.006089  0.004152 -0.013300)
 66:   1246.30   0.000670    3.39  0.000168  ( 0.007420 -0.004740 -0.009500)
 67:   1297.55   0.000742    3.75  0.000178  ( 0.011295 -0.004021  0.005893)
 68:   1302.44   0.000246    1.24  0.000059  (-0.006281 -0.004219  0.001263)
 69:   1315.35   0.000126    0.64  0.000030  (-0.003783  0.002169  0.003310)
 70:   1322.61   0.000494    2.50  0.000117  (-0.004937  0.004719 -0.008360)
 71:   1331.22   0.000266    1.35  0.000062  (-0.006602  0.004324 -0.000342)
 72:   1351.30   0.000262    1.32  0.000061  ( 0.002210 -0.006781 -0.003108)
 73:   1359.82   0.000423    2.14  0.000097  (-0.006846  0.002125 -0.006754)
 74:   1364.69   0.000558    2.82  0.000128  (-0.002015 -0.005538 -0.009642)
 75:   1377.07   0.001178    5.96  0.000267  (-0.015131  0.004080  0.004634)
 76:   1399.93   0.000010    0.05  0.000002  (-0.000651 -0.000595  0.001169)
 77:   1410.25   0.008667   43.80  0.001918  (-0.040179  0.004993  0.016692)
 78:   1434.30   0.001932    9.76  0.000420  (-0.007328  0.007509  0.017615)
 79:   1442.52   0.001170    5.91  0.000253  (-0.004998  0.013924  0.005856)
 80:   1448.47   0.000459    2.32  0.000099  ( 0.002020 -0.005836  0.007789)
 81:   1449.75   0.002385   12.05  0.000513  (-0.003990 -0.005478 -0.021619)
 82:   1454.91   0.004886   24.69  0.001048  (-0.025780  0.002592  0.019408)
 83:   1500.16   0.000123    0.62  0.000026  ( 0.004426  0.000561 -0.002381)
 84:   1506.83   0.000826    4.18  0.000171  (-0.006025 -0.003339  0.011122)
 85:   1508.21   0.001312    6.63  0.000271  ( 0.011606  0.007835 -0.008683)
 86:   1516.69   0.002401   12.14  0.000494  (-0.012651 -0.002180 -0.018147)
 87:   1522.21   0.002104   10.63  0.000431  (-0.007589 -0.015773  0.011179)
 88:   1526.54   0.002713   13.71  0.000555  ( 0.010693 -0.013250 -0.016267)
 89:   1528.30   0.000867    4.38  0.000177  ( 0.012298 -0.004971 -0.001022)
 90:   1532.32   0.001598    8.07  0.000325  (-0.005517  0.016703  0.003996)
 91:   1534.91   0.001459    7.38  0.000297  ( 0.005729 -0.015662  0.004315)
 92:   1546.04   0.001396    7.05  0.000282  ( 0.004353 -0.004716  0.015508)
 93:   1556.55   0.000434    2.20  0.000087  (-0.004234 -0.008043 -0.002120)
 94:   1565.60   0.001491    7.54  0.000297  (-0.017072  0.000631 -0.002325)
 95:   1801.81   0.000157    0.79  0.000027  ( 0.001045 -0.000887 -0.005030)
 96:   3085.13   0.003077   15.55  0.000311  (-0.005536  0.010962 -0.012665)
 97:   3093.90   0.007441   37.60  0.000751  (-0.007974 -0.025121  0.007475)
 98:   3101.49   0.006713   33.93  0.000675  (-0.020688 -0.002660 -0.015505)
 99:   3103.15   0.005392   27.25  0.000542  ( 0.012024 -0.007285 -0.018564)
100:   3115.06   0.008524   43.08  0.000854  (-0.008793 -0.023625  0.014779)
101:   3120.79   0.003576   18.07  0.000358  (-0.006184 -0.001010 -0.017841)
102:   3121.89   0.006108   30.87  0.000611  (-0.013534 -0.005483 -0.019934)
103:   3125.07   0.010852   54.84  0.001084  (-0.022393 -0.019626  0.014036)
104:   3150.37   0.001611    8.14  0.000160  (-0.005575  0.004717  0.010307)
105:   3169.97   0.005643   28.52  0.000555  (-0.021550  0.006080 -0.007356)
106:   3173.18   0.006411   32.40  0.000630  ( 0.002497 -0.024204  0.006196)
107:   3179.02   0.000486    2.46  0.000048  ( 0.004661 -0.004355  0.002651)
108:   3181.08   0.003472   17.55  0.000341  ( 0.002455  0.013015  0.012851)
109:   3183.16   0.001268    6.41  0.000124  (-0.004523 -0.007595  0.006798)
110:   3183.98   0.002779   14.04  0.000272  (-0.015315  0.006118  0.000608)
111:   3186.33   0.003422   17.30  0.000335  (-0.003058  0.017923  0.002146)
112:   3189.56   0.003552   17.95  0.000347  ( 0.003054 -0.008514  0.016299)
113:   3191.78   0.004638   23.44  0.000453  (-0.019390  0.003442  0.008102)
114:   3193.94   0.008375   42.32  0.000818  (-0.009113 -0.016251 -0.021705)
115:   3211.44   0.002508   12.68  0.000244  ( 0.004210 -0.012535 -0.008300)
116:   3218.70   0.004330   21.88  0.000420  (-0.018216 -0.002997 -0.008889)
117:   3253.33   0.001569    7.93  0.000151  ( 0.006514  0.002099  0.010182)
118:   3263.46   0.003332   16.84  0.000319  (-0.011965  0.012872  0.003130)
119:   3953.92   0.007909   39.97  0.000624  ( 0.001032  0.017060 -0.018224)

--------------------------
THERMOCHEMISTRY AT 298.15K
--------------------------

Temperature         ...   298.15 K
Pressure            ...     1.00 atm
Total Mass          ...   220.36 AMU
Quasi RRHO          ...     True
Cut-Off Frequency   ...     1.00 cm^-1

Throughout the following assumptions are being made:
  (1) The electronic state is orbitally nondegenerate
  (2) There are no thermally accessible electronically excited states
  (3) Hindered rotations indicated by low frequency modes are not
      treated as such but are treated as vibrations and this may
      cause some error
  (4) All equations used are the standard statistical mechanics
      equations for an ideal gas
  (5) All vibrations are strictly harmonic

freq.      18.23  E(vib)   ...       0.57
freq.      36.96  E(vib)   ...       0.54
freq.      55.26  E(vib)   ...       0.52
freq.      74.23  E(vib)   ...       0.49
freq.     102.05  E(vib)   ...       0.46
freq.     156.26  E(vib)   ...       0.40
freq.     183.00  E(vib)   ...       0.37
freq.     190.94  E(vib)   ...       0.36
freq.     234.89  E(vib)   ...       0.32
freq.     241.59  E(vib)   ...       0.31
freq.     245.46  E(vib)   ...       0.31
freq.     250.10  E(vib)   ...       0.31
freq.     270.33  E(vib)   ...       0.29
freq.     278.15  E(vib)   ...       0.28
freq.     312.32  E(vib)   ...       0.25
freq.     330.52  E(vib)   ...       0.24
freq.     378.75  E(vib)   ...       0.21
freq.     387.54  E(vib)   ...       0.20
freq.     418.44  E(vib)   ...       0.18
freq.     445.23  E(vib)   ...       0.17
freq.     485.10  E(vib)   ...       0.15
freq.     498.75  E(vib)   ...       0.14
freq.     553.90  E(vib)   ...       0.12
freq.     572.16  E(vib)   ...       0.11
freq.     605.37  E(vib)   ...       0.10
freq.     609.97  E(vib)   ...       0.10
freq.     663.48  E(vib)   ...       0.08
freq.     719.86  E(vib)   ...       0.07
freq.     774.65  E(vib)   ...       0.05
freq.     798.69  E(vib)   ...       0.05
freq.     846.21  E(vib)   ...       0.04
freq.     865.02  E(vib)   ...       0.04
freq.     892.98  E(vib)   ...       0.03
freq.     902.39  E(vib)   ...       0.03
freq.     904.39  E(vib)   ...       0.03
freq.     928.57  E(vib)   ...       0.03
freq.     948.69  E(vib)   ...       0.03
freq.     956.78  E(vib)   ...       0.03
freq.     971.19  E(vib)   ...       0.03
freq.     977.70  E(vib)   ...       0.03
freq.     988.36  E(vib)   ...       0.02
freq.    1013.29  E(vib)   ...       0.02
freq.    1020.36  E(vib)   ...       0.02
freq.    1025.19  E(vib)   ...       0.02
freq.    1047.47  E(vib)   ...       0.02
freq.    1054.07  E(vib)   ...       0.02
freq.    1071.17  E(vib)   ...       0.02
freq.    1083.75  E(vib)   ...       0.02
freq.    1093.18  E(vib)   ...       0.02
freq.    1093.73  E(vib)   ...       0.02
freq.    1105.93  E(vib)   ...       0.02
freq.    1134.90  E(vib)   ...       0.01
freq.    1144.88  E(vib)   ...       0.01
freq.    1156.05  E(vib)   ...       0.01
freq.    1180.80  E(vib)   ...       0.01
freq.    1185.57  E(vib)   ...       0.01
freq.    1198.24  E(vib)   ...       0.01
freq.    1225.13  E(vib)   ...       0.01
freq.    1229.52  E(vib)   ...       0.01
freq.    1232.85  E(vib)   ...       0.01
freq.    1246.30  E(vib)   ...       0.01
freq.    1297.55  E(vib)   ...       0.01
freq.    1302.44  E(vib)   ...       0.01
freq.    1315.35  E(vib)   ...       0.01
freq.    1322.61  E(vib)   ...       0.01
freq.    1331.22  E(vib)   ...       0.01
freq.    1351.30  E(vib)   ...       0.01
freq.    1359.82  E(vib)   ...       0.01
freq.    1364.69  E(vib)   ...       0.01
freq.    1377.07  E(vib)   ...       0.01
freq.    1399.93  E(vib)   ...       0.00
freq.    1410.25  E(vib)   ...       0.00
freq.    1434.30  E(vib)   ...       0.00
freq.    1442.52  E(vib)   ...       0.00
freq.    1448.47  E(vib)   ...       0.00
freq.    1449.75  E(vib)   ...       0.00
freq.    1454.91  E(vib)   ...       0.00
freq.    1500.16  E(vib)   ...       0.00
freq.    1506.83  E(vib)   ...       0.00
freq.    1508.21  E(vib)   ...       0.00
freq.    1516.69  E(vib)   ...       0.00
freq.    1522.21  E(vib)   ...       0.00
freq.    1526.54  E(vib)   ...       0.00
freq.    1528.30  E(vib)   ...       0.00
freq.    1532.32  E(vib)   ...       0.00
freq.    1534.91  E(vib)   ...       0.00
freq.    1546.04  E(vib)   ...       0.00
freq.    1556.55  E(vib)   ...       0.00
freq.    1565.60  E(vib)   ...       0.00
freq.    1801.81  E(vib)   ...       0.00
freq.    3085.13  E(vib)   ...       0.00
freq.    3093.90  E(vib)   ...       0.00
freq.    3101.49  E(vib)   ...       0.00
freq.    3103.15  E(vib)   ...       0.00
freq.    3115.06  E(vib)   ...       0.00
freq.    3120.79  E(vib)   ...       0.00
freq.    3121.89  E(vib)   ...       0.00
freq.    3125.07  E(vib)   ...       0.00
freq.    3150.37  E(vib)   ...       0.00
freq.    3169.97  E(vib)   ...       0.00
freq.    3173.18  E(vib)   ...       0.00
freq.    3179.02  E(vib)   ...       0.00
freq.    3181.08  E(vib)   ...       0.00
freq.    3183.16  E(vib)   ...       0.00
freq.    3183.98  E(vib)   ...       0.00
freq.    3186.33  E(vib)   ...       0.00
freq.    3189.56  E(vib)   ...       0.00
freq.    3191.78  E(vib)   ...       0.00
freq.    3193.94  E(vib)   ...       0.00
freq.    3211.44  E(vib)   ...       0.00
freq.    3218.70  E(vib)   ...       0.00
freq.    3253.33  E(vib)   ...       0.00
freq.    3263.46  E(vib)   ...       0.00
freq.    3953.92  E(vib)   ...       0.00

------------
INNER ENERGY
------------

The inner energy is: U= E(el) + E(ZPE) + E(vib) + E(rot) + E(trans)
    E(el)   - is the total energy from the electronic structure calculation
              = E(kin-el) + E(nuc-el) + E(el-el) + E(nuc-nuc)
    E(ZPE)  - the the zero temperature vibrational energy from the frequency calculation
    E(vib)  - the the finite temperature correction to E(ZPE) due to population
              of excited vibrational states
    E(rot)  - is the rotational thermal energy
    E(trans)- is the translational thermal energy

Summary of contributions to the inner energy U:
Electronic energy                ...   -115.96849448 Eh
Zero point energy                ...      0.37037279 Eh     232.41 kcal/mol
Thermal vibrational correction   ...      0.01352770 Eh       8.49 kcal/mol
Thermal rotational correction    ...      0.00141627 Eh       0.89 kcal/mol
Thermal translational correction ...      0.00141627 Eh       0.89 kcal/mol
-----------------------------------------------------------------------
Total thermal energy                   -115.58176144 Eh

Summary of corrections to the electronic energy:
(perhaps to be used in another calculation)
Total thermal correction                  0.01636025 Eh      10.27 kcal/mol
Non-thermal (ZPE) correction              0.37037279 Eh     232.41 kcal/mol

Rotational constants in cm-1:     0.038906     0.007836     0.007679

                             ****ORCA TERMINATED NORMALLY****
TOTAL RUN TIME: 0 days 0 hours 36 minutes 58 seconds 263 msec
