                         Program Version 6.0.1  -  RELEASE   -
|  1> ! wB97X-3c OPT FREQ TightSCF
|  2> %pal
|  3>   nprocs 40
|  4> end
|  5> * xyz 0 1
|  6> C     -0.583606    -3.035230    -0.379319
|  7> C     -1.225388    -1.648445    -0.260028
|  8> C     -2.439675    -1.484065    -1.176814
|  9> C     -2.479195    -0.015686    -1.606296
| 10> C     -1.190273     0.642990    -1.087511
| 11> C     -0.264636    -0.524055    -0.651555
| 12> C      0.656775    -0.124471     0.523348
| 13> C      1.469092     1.113297     0.054891
| 14> C      2.182880    -0.119838     0.596706
| 15> C      2.798577    -0.006416     1.995880
| 16> C      2.919104    -0.999945    -0.420388
| 17> C      0.935164     2.333396     0.822792
| 18> C     -0.383152     2.815109     0.167573
| 19> C     -1.407725     1.692249     0.022391
| 20> C     -2.298207     1.497786     1.012483
| 21> H     -1.322958    -3.817739    -0.106275
| 22> H      0.281079    -3.111953     0.313461
| 23> H     -0.229663    -3.221483    -1.416030
| 24> H     -1.566405    -1.507184     0.790898
| 25> H     -3.373470    -1.765134    -0.642533
| 26> H     -2.343899    -2.126745    -2.080612
| 27> H     -3.399141     0.485932    -1.237559
| 28> H     -2.505969     0.039358    -2.717433
| 29> H     -0.711278     1.164714    -1.946420
| 30> H      0.329062    -0.845337    -1.535677
| 31> H      0.160354    -0.026507     1.515275
| 32> H      1.575230     1.246592    -1.045473
| 33> H      3.031228    -1.022061     2.378906
| 34> H      2.123332     0.485372     2.725346
| 35> H      3.741386     0.576368     1.936552
| 36> H      2.740346    -2.068943    -0.180874
| 37> H      2.600227    -0.808086    -1.465371
| 38> H      4.009572    -0.800773    -0.361062
| 39> H      1.688376     3.146522     0.757826
| 40> H      0.761786     2.130313     1.900940
| 41> H     -0.801376     3.652649     0.767802
| 42> H     -0.158574     3.231049    -0.838402
| 43> H     -2.953939     0.634500     1.027950
| 44> H     -2.365043     2.191903     1.844612
| 45> *
| 46>
| 47>                          ****END OF INPUT****
 Total Charge           Charge          ....    0
 Multiplicity           Mult            ....    1
 Number of Electrons    NEL             ....   84
Dispersion correction           -0.053212968
FINAL SINGLE POINT ENERGY       -99.885117691029
Dispersion correction             ... done (  0.1 sec)
Dispersion correction           -0.053738832
FINAL SINGLE POINT ENERGY       -99.902842351094
Dispersion correction             ... done (  0.1 sec)
Dispersion correction           -0.053844044
FINAL SINGLE POINT ENERGY       -99.908550220461
Dispersion correction             ... done (  0.0 sec)
FINAL SINGLE POINT ENERGY       -99.911048625691
FINAL SINGLE POINT ENERGY       -99.911976794058
FINAL SINGLE POINT ENERGY       -99.912327564433
FINAL SINGLE POINT ENERGY       -99.912463139647
FINAL SINGLE POINT ENERGY       -99.912536622767
FINAL SINGLE POINT ENERGY       -99.912601250924
FINAL SINGLE POINT ENERGY       -99.912685892846
FINAL SINGLE POINT ENERGY       -99.912759445237
FINAL SINGLE POINT ENERGY       -99.912816086620
FINAL SINGLE POINT ENERGY       -99.912843638631
Dispersion correction             ... done (  0.1 sec)
Dispersion correction           -0.053419184
FINAL SINGLE POINT ENERGY       -99.912847913276
Dispersion correction             ... done (  0.0 sec)
Dispersion correction           -0.053417568
FINAL SINGLE POINT ENERGY       -99.912849221357
Dispersion correction             ... done (  0.1 sec)
                    ***********************HURRAY********************

CARTESIAN COORDINATES (ANGSTROEM)
---------------------------------
  C     -0.566850   -3.035416   -0.210020
  C     -1.236945   -1.681485   -0.280321
  C     -2.326018   -1.551510   -1.333452
  C     -2.548549   -0.044028   -1.475204
  C     -1.240100    0.638314   -1.027024
  C     -0.295047   -0.545238   -0.646561
  C      0.651762   -0.091406    0.417312
  C      1.460482    1.116637    0.088043
  C      2.143965   -0.132485    0.562073
  C      2.686158   -0.213215    1.963583
  C      2.977976   -0.870197   -0.450116
  C      1.018602    2.372129    0.775779
  C     -0.327841    2.776665    0.152801
  C     -1.369117    1.672015    0.088026
  C     -2.334137    1.644881    0.998923
  H     -1.276621   -3.819915    0.052874
  H      0.228656   -3.040944    0.535535
  H     -0.123252   -3.296306   -1.172712
  H     -1.673060   -1.448838    0.698054
  H     -3.238099   -2.090069   -1.074963
  H     -1.961844   -1.974716   -2.273545
  H     -3.385678    0.277923   -0.861672
  H     -2.802352    0.231262   -2.498035
  H     -0.798368    1.164683   -1.874261
  H      0.251258   -0.839160   -1.548324
  H      0.156821   -0.002958    1.378820
  H      1.586104    1.260778   -0.981923
  H      2.734956   -1.250356    2.298660
  H      2.066645    0.334821    2.670589
  H      3.694147    0.201296    2.010950
  H      3.040212   -1.929900   -0.197797
  H      2.563113   -0.791628   -1.453183
  H      3.993311   -0.472101   -0.478091
  H      1.728684    3.194248    0.663373
  H      0.888356    2.201571    1.845377
  H     -0.742704    3.620449    0.704469
  H     -0.140480    3.132969   -0.863855
  H     -3.101825    0.884305    1.019378
  H     -2.382321    2.396926    1.776438

 Multiplicity           Mult            ....    1
 Number of Electrons    NEL             ....   84
 Basis Dimension        Dim             ....  315

ORBITAL ENERGIES
----------------

  NO   OCC          E(Eh)            E(eV)
   0   2.0000      -1.029926       -28.0257
   1   2.0000      -0.986053       -26.8319
   2   2.0000      -0.945329       -25.7237
   3   2.0000      -0.891884       -24.2694
   4   2.0000      -0.872738       -23.7484
   5   2.0000      -0.866649       -23.5827
   6   2.0000      -0.827316       -22.5124
   7   2.0000      -0.823631       -22.4122
   8   2.0000      -0.787809       -21.4374
   9   2.0000      -0.761403       -20.7188
  10   2.0000      -0.722071       -19.6486
  11   2.0000      -0.688442       -18.7335
  12   2.0000      -0.686864       -18.6905
  13   2.0000      -0.657925       -17.9030
  14   2.0000      -0.619799       -16.8656
  15   2.0000      -0.606096       -16.4927
  16   2.0000      -0.584576       -15.9071
  17   2.0000      -0.578990       -15.7551
  18   2.0000      -0.573367       -15.6021
  19   2.0000      -0.552838       -15.0435
  20   2.0000      -0.549909       -14.9638
  21   2.0000      -0.536895       -14.6097
  22   2.0000      -0.525300       -14.2942
  23   2.0000      -0.514062       -13.9883
  24   2.0000      -0.510431       -13.8895
  25   2.0000      -0.501791       -13.6544
  26   2.0000      -0.491667       -13.3790
  27   2.0000      -0.488249       -13.2859
  28   2.0000      -0.482813       -13.1380
  29   2.0000      -0.471717       -12.8361
  30   2.0000      -0.467949       -12.7335
  31   2.0000      -0.455925       -12.4063
  32   2.0000      -0.441592       -12.0163
  33   2.0000      -0.436681       -11.8827
  34   2.0000      -0.428561       -11.6617
  35   2.0000      -0.424637       -11.5549
  36   2.0000      -0.416636       -11.3372
  37   2.0000      -0.412757       -11.2317
  38   2.0000      -0.408582       -11.1181
  39   2.0000      -0.363990        -9.9047
  40   2.0000      -0.351890        -9.5754
  41   2.0000      -0.333428        -9.0730
  42   0.0000       0.075919         2.0659
  43   0.0000       0.089666         2.4399
  44   0.0000       0.095042         2.5862
  45   0.0000       0.096949         2.6381
  46   0.0000       0.103455         2.8151

MULLIKEN ATOMIC CHARGES
-----------------------
   0 C :   -0.028000
   1 C :   -0.063859
   2 C :   -0.029330
   3 C :   -0.017811
   4 C :   -0.078877
   5 C :   -0.057717
   6 C :    0.001269
   7 C :   -0.044785
   8 C :   -0.102904
   9 C :   -0.015062
  10 C :   -0.015208
  11 C :   -0.023124
  12 C :   -0.032738
  13 C :   -0.094757
  14 C :   -0.002197
  15 H :    0.027481
  16 H :    0.024593
  17 H :    0.020100
  18 H :    0.026843
  19 H :    0.031047
  20 H :    0.022165
  21 H :    0.023753
  22 H :    0.030662
  23 H :    0.032497
  24 H :    0.021691
  25 H :    0.025661
  26 H :    0.021408
  27 H :    0.025681
  28 H :    0.020146
  29 H :    0.029612
  30 H :    0.023911
  31 H :    0.018478
  32 H :    0.029982
  33 H :    0.029981
  34 H :    0.023733
  35 H :    0.026720
  36 H :    0.032816
  37 H :    0.018951
  38 H :    0.017188
Sum of atomic charges:    0.0000000

LOEWDIN ATOMIC CHARGES
----------------------
   0 C :   -0.107035
   1 C :   -0.074083
   2 C :   -0.073318
   3 C :   -0.059306
   4 C :   -0.037219
   5 C :   -0.050750
   6 C :   -0.047648
   7 C :   -0.051376
   8 C :   -0.066384
   9 C :   -0.099836
  10 C :   -0.100059
  11 C :   -0.076964
  12 C :   -0.070651
  13 C :   -0.022830
  14 C :   -0.081485
  15 H :    0.044133
  16 H :    0.044175
  17 H :    0.041563
  18 H :    0.045087
  19 H :    0.040296
  20 H :    0.040986
  21 H :    0.037069
  22 H :    0.041139
  23 H :    0.041001
  24 H :    0.043336
  25 H :    0.046238
  26 H :    0.044669
  27 H :    0.045634
  28 H :    0.044755
  29 H :    0.046197
  30 H :    0.045033
  31 H :    0.043235
  32 H :    0.046372
  33 H :    0.043574
  34 H :    0.042760
  35 H :    0.048949
  36 H :    0.045903
  37 H :    0.025102
  38 H :    0.031736

  Mayer bond orders larger than 0.100000
B(  0-C ,  1-C ) :   1.0174 B(  0-C , 15-H ) :   0.9930 B(  0-C , 16-H ) :   0.9925
B(  0-C , 17-H ) :   0.9898 B(  1-C ,  2-C ) :   0.9867 B(  1-C ,  5-C ) :   0.9693
B(  1-C , 18-H ) :   0.9883 B(  2-C ,  3-C ) :   0.9911 B(  2-C , 19-H ) :   1.0016
B(  2-C , 20-H ) :   0.9940 B(  3-C ,  4-C ) :   0.9912 B(  3-C , 21-H ) :   0.9958
B(  3-C , 22-H ) :   1.0015 B(  4-C ,  5-C ) :   0.9772 B(  4-C , 13-C ) :   1.0172
B(  4-C , 23-H ) :   0.9995 B(  5-C ,  6-C ) :   1.0245 B(  5-C , 24-H ) :   0.9892
B(  6-C ,  7-C ) :   0.8951 B(  6-C ,  8-C ) :   0.9469 B(  6-C , 25-H ) :   0.9881
B(  7-C ,  8-C ) :   0.9653 B(  7-C , 11-C ) :   1.0032 B(  7-C , 26-H ) :   0.9928
B(  8-C ,  9-C ) :   1.0248 B(  8-C , 10-C ) :   1.0262 B(  9-C , 27-H ) :   0.9853
B(  9-C , 28-H ) :   0.9883 B(  9-C , 29-H ) :   0.9860 B( 10-C , 30-H ) :   0.9853
B( 10-C , 31-H ) :   0.9880 B( 10-C , 32-H ) :   0.9868 B( 11-C , 12-C ) :   0.9820
B( 11-C , 33-H ) :   0.9952 B( 11-C , 34-H ) :   0.9910 B( 12-C , 13-C ) :   1.0116
B( 12-C , 35-H ) :   0.9985 B( 12-C , 36-H ) :   0.9905 B( 13-C , 14-C ) :   1.9528
B( 14-C , 37-H ) :   0.9830 B( 14-C , 38-H ) :   0.9814

Dispersion correction           -0.053417042
FINAL SINGLE POINT ENERGY       -99.912849581083

DIPOLE MOMENT
-------------

Method             : SCF
Type of density    : Electron Density
Multiplicity       :   1
Irrep              :   0
Energy             :   -99.8594325395259688 Eh
Relativity type    :
Basis              : AO
                                X                 Y                 Z
Electronic contribution:     -3.599270347       5.896497389      -1.141734780
Nuclear contribution   :      3.757091469      -5.915261817       1.082406947
                        -----------------------------------------
Total Dipole Moment    :      0.157821122      -0.018764428      -0.059327834
                        -----------------------------------------
Magnitude (a.u.)       :      0.169644930
Magnitude (Debye)      :      0.431203143

VIBRATIONAL FREQUENCIES
-----------------------

Scaling factor for frequencies =  1.000000000  (already applied!)

     0:       0.00 cm**-1
     1:       0.00 cm**-1
     2:       0.00 cm**-1
     3:       0.00 cm**-1
     4:       0.00 cm**-1
     5:       0.00 cm**-1
     6:      38.40 cm**-1
     7:     105.01 cm**-1
     8:     120.99 cm**-1
     9:     136.01 cm**-1
    10:     143.74 cm**-1
    11:     172.65 cm**-1
    12:     206.76 cm**-1
    13:     220.90 cm**-1
    14:     234.06 cm**-1
    15:     244.17 cm**-1
    16:     272.64 cm**-1
    17:     286.60 cm**-1
    18:     328.63 cm**-1
    19:     350.60 cm**-1
    20:     373.65 cm**-1
    21:     375.12 cm**-1
    22:     424.55 cm**-1
    23:     447.24 cm**-1
    24:     465.88 cm**-1
    25:     480.08 cm**-1
    26:     542.64 cm**-1
    27:     547.15 cm**-1
    28:     586.22 cm**-1
    29:     645.93 cm**-1
    30:     720.27 cm**-1
    31:     746.70 cm**-1
    32:     765.30 cm**-1
    33:     778.79 cm**-1
    34:     846.73 cm**-1
    35:     860.28 cm**-1
    36:     884.45 cm**-1
    37:     905.01 cm**-1
    38:     935.98 cm**-1
    39:     941.57 cm**-1
    40:     959.96 cm**-1
    41:     982.94 cm**-1
    42:     985.32 cm**-1
    43:     993.25 cm**-1
    44:    1010.03 cm**-1
    45:    1015.75 cm**-1
    46:    1028.92 cm**-1
    47:    1038.23 cm**-1
    48:    1051.87 cm**-1
    49:    1064.55 cm**-1
    50:    1089.13 cm**-1
    51:    1108.76 cm**-1
    52:    1126.90 cm**-1
    53:    1153.23 cm**-1
    54:    1160.53 cm**-1
    55:    1174.33 cm**-1
    56:    1179.91 cm**-1
    57:    1201.07 cm**-1
    58:    1213.87 cm**-1
    59:    1220.66 cm**-1
    60:    1257.08 cm**-1
    61:    1259.47 cm**-1
    62:    1262.74 cm**-1
    63:    1286.49 cm**-1
    64:    1295.17 cm**-1
    65:    1315.58 cm**-1
    66:    1325.31 cm**-1
    67:    1336.91 cm**-1
    68:    1353.85 cm**-1
    69:    1359.56 cm**-1
    70:    1363.42 cm**-1
    71:    1376.74 cm**-1
    72:    1393.51 cm**-1
    73:    1404.79 cm**-1
    74:    1421.28 cm**-1
    75:    1426.73 cm**-1
    76:    1445.86 cm**-1
    77:    1451.57 cm**-1
    78:    1456.30 cm**-1
    79:    1468.64 cm**-1
    80:    1473.52 cm**-1
    81:    1510.48 cm**-1
    82:    1516.29 cm**-1
    83:    1518.60 cm**-1
    84:    1521.97 cm**-1
    85:    1525.46 cm**-1
    86:    1526.04 cm**-1
    87:    1528.83 cm**-1
    88:    1529.12 cm**-1
    89:    1532.79 cm**-1
    90:    1546.56 cm**-1
    91:    1586.15 cm**-1
    92:    1760.47 cm**-1
    93:    3068.66 cm**-1
    94:    3084.02 cm**-1
    95:    3089.66 cm**-1
    96:    3091.82 cm**-1
    97:    3092.27 cm**-1
    98:    3094.59 cm**-1
    99:    3095.68 cm**-1
   100:    3101.56 cm**-1
   101:    3115.33 cm**-1
   102:    3140.33 cm**-1
   103:    3151.51 cm**-1
   104:    3156.55 cm**-1
   105:    3160.00 cm**-1
   106:    3169.94 cm**-1
   107:    3173.77 cm**-1
   108:    3175.57 cm**-1
   109:    3176.92 cm**-1
   110:    3184.01 cm**-1
   111:    3186.62 cm**-1
   112:    3197.47 cm**-1
   113:    3197.74 cm**-1
   114:    3201.23 cm**-1
   115:    3210.79 cm**-1
   116:    3301.27 cm**-1

IR SPECTRUM
-----------

 Mode   freq       eps      Int      T**2         TX        TY        TZ
       cm**-1   L/(mol*cm) km/mol    a.u.
----------------------------------------------------------------------------
  6:     38.40   0.000005    0.02  0.000038  ( 0.003686  0.004941 -0.000162)
  7:    105.01   0.000006    0.03  0.000019  (-0.002724 -0.003358  0.000175)
  8:    120.99   0.000003    0.02  0.000008  ( 0.001590  0.001959  0.001181)
  9:    136.01   0.000020    0.10  0.000046  (-0.001702 -0.006372  0.001553)
 10:    143.74   0.000003    0.02  0.000007  ( 0.001651  0.000217  0.001967)
 11:    172.65   0.000019    0.10  0.000034  (-0.000526  0.005238 -0.002585)
 12:    206.76   0.000006    0.03  0.000009  ( 0.002376  0.000256  0.001805)
 13:    220.90   0.000022    0.11  0.000032  (-0.004157 -0.003473 -0.001560)
 14:    234.06   0.000014    0.07  0.000019  ( 0.004050 -0.001558  0.000399)
 15:    244.17   0.000010    0.05  0.000013  ( 0.002719  0.001950 -0.001318)
 16:    272.64   0.000108    0.55  0.000124  ( 0.008675  0.006623 -0.002200)
 17:    286.60   0.000019    0.09  0.000020  ( 0.003674  0.002247 -0.001346)
 18:    328.63   0.000099    0.50  0.000094  ( 0.005300  0.004892  0.006504)
 19:    350.60   0.000059    0.30  0.000053  (-0.003201 -0.004423  0.004808)
 20:    373.65   0.000165    0.83  0.000138  ( 0.001539 -0.011604 -0.000905)
 21:    375.12   0.000025    0.13  0.000021  ( 0.003248 -0.001488 -0.002845)
 22:    424.55   0.000060    0.30  0.000044  (-0.005746  0.001468 -0.002966)
 23:    447.24   0.000142    0.72  0.000099  (-0.001284  0.008079 -0.005656)
 24:    465.88   0.000012    0.06  0.000008  ( 0.000805  0.001805 -0.001975)
 25:    480.08   0.000100    0.51  0.000065  ( 0.005520  0.000414  0.005884)
 26:    542.64   0.000294    1.49  0.000169  ( 0.008382 -0.009592  0.002609)
 27:    547.15   0.000175    0.88  0.000100  ( 0.004402  0.006272  0.006392)
 28:    586.22   0.000038    0.19  0.000020  (-0.003240  0.000022  0.003121)
 29:    645.93   0.000481    2.43  0.000232  ( 0.006126 -0.005636  0.012775)
 30:    720.27   0.000696    3.52  0.000302  ( 0.014215 -0.006788  0.007309)
 31:    746.70   0.000038    0.19  0.000016  ( 0.003551 -0.001798 -0.000105)
 32:    765.30   0.000064    0.32  0.000026  ( 0.001890 -0.002669  0.003936)
 33:    778.79   0.000186    0.94  0.000075  (-0.005357  0.004964 -0.004615)
 34:    846.73   0.000115    0.58  0.000043  (-0.003393 -0.004479  0.003306)
 35:    860.28   0.000159    0.80  0.000058  ( 0.004129 -0.003107 -0.005563)
 36:    884.45   0.000477    2.41  0.000168  ( 0.006244  0.011187 -0.002063)
 37:    905.01   0.000334    1.69  0.000115  ( 0.003475  0.008708 -0.005232)
 38:    935.98   0.001568    7.93  0.000523  (-0.005857  0.013532 -0.017478)
 39:    941.57   0.006636   33.53  0.002199  (-0.028336  0.027112 -0.025714)
 40:    959.96   0.000907    4.58  0.000295  ( 0.016138 -0.005443 -0.002165)
 41:    982.94   0.000268    1.35  0.000085  (-0.007104 -0.000168  0.005869)
 42:    985.32   0.000181    0.92  0.000057  ( 0.003159  0.006245  0.002898)
 43:    993.25   0.000265    1.34  0.000083  (-0.005764 -0.002906 -0.006445)
 44:   1010.03   0.001199    6.06  0.000370  (-0.016509 -0.001821 -0.009726)
 45:   1015.75   0.001507    7.62  0.000463  (-0.018859  0.010357 -0.000179)
 46:   1028.92   0.000357    1.81  0.000108  ( 0.009825  0.002602 -0.002242)
 47:   1038.23   0.000049    0.25  0.000015  (-0.002970  0.001333  0.002049)
 48:   1051.87   0.000041    0.21  0.000012  (-0.001701 -0.002453  0.001839)
 49:   1064.55   0.001265    6.39  0.000371  (-0.006347 -0.017681  0.004235)
 50:   1089.13   0.000472    2.39  0.000135  ( 0.006106  0.009566 -0.002544)
 51:   1108.76   0.000731    3.69  0.000206  ( 0.014341  0.000060 -0.000034)
 52:   1126.90   0.000096    0.49  0.000027  ( 0.000304 -0.004673 -0.002176)
 53:   1153.23   0.000472    2.39  0.000128  (-0.008275  0.007699 -0.000220)
 54:   1160.53   0.000146    0.74  0.000039  (-0.004361 -0.003945  0.002161)
 55:   1174.33   0.000256    1.29  0.000068  (-0.004083 -0.006395  0.003241)
 56:   1179.91   0.000026    0.13  0.000007  ( 0.001797 -0.001209  0.001458)
 57:   1201.07   0.000303    1.53  0.000079  ( 0.007414  0.004805 -0.000817)
 58:   1213.87   0.000018    0.09  0.000005  ( 0.001586  0.001402  0.000211)
 59:   1220.66   0.002110   10.66  0.000539  ( 0.012643  0.018179  0.007002)
 60:   1257.08   0.000143    0.72  0.000036  ( 0.002400  0.003740  0.003969)
 61:   1259.47   0.000165    0.83  0.000041  ( 0.005268 -0.002836 -0.002258)
 62:   1262.74   0.000476    2.40  0.000118  (-0.001438 -0.010670  0.001292)
 63:   1286.49   0.000180    0.91  0.000044  (-0.003577  0.004016 -0.003826)
 64:   1295.17   0.000198    1.00  0.000048  ( 0.001094 -0.006080 -0.003094)
 65:   1315.58   0.000349    1.77  0.000083  (-0.003117  0.003160  0.007949)
 66:   1325.31   0.000098    0.49  0.000023  ( 0.004544  0.001008 -0.001180)
 67:   1336.91   0.000292    1.48  0.000068  ( 0.004827  0.006084 -0.002814)
 68:   1353.85   0.000296    1.50  0.000068  (-0.002113  0.001529 -0.007843)
 69:   1359.56   0.000036    0.18  0.000008  (-0.002877 -0.000181 -0.000211)
 70:   1363.42   0.000503    2.54  0.000115  ( 0.004251 -0.009423 -0.002868)
 71:   1376.74   0.000666    3.37  0.000151  (-0.011799  0.003189 -0.001257)
 72:   1393.51   0.000133    0.67  0.000030  ( 0.001016  0.005084  0.001698)
 73:   1404.79   0.000163    0.82  0.000036  ( 0.000129 -0.001279  0.005877)
 74:   1421.28   0.000189    0.95  0.000041  (-0.003743 -0.003527 -0.003875)
 75:   1426.73   0.000400    2.02  0.000088  (-0.003337  0.005167  0.007052)
 76:   1445.86   0.002038   10.30  0.000440  (-0.002052 -0.010516  0.018028)
 77:   1451.57   0.001587    8.02  0.000341  (-0.007743  0.009546  0.013790)
 78:   1456.30   0.001042    5.27  0.000223  ( 0.012065 -0.008675 -0.001578)
 79:   1468.64   0.000312    1.58  0.000066  ( 0.002732  0.005808  0.005005)
 80:   1473.52   0.002236   11.30  0.000473  (-0.002350  0.000990  0.021609)
 81:   1510.48   0.000250    1.27  0.000052  ( 0.007048 -0.001275  0.000672)
 82:   1516.29   0.000799    4.04  0.000164  ( 0.003046 -0.011829  0.003912)
 83:   1518.60   0.001603    8.10  0.000329  ( 0.007714 -0.007895  0.014408)
 84:   1521.97   0.000976    4.93  0.000200  (-0.011221  0.006938 -0.005116)
 85:   1525.46   0.001941    9.81  0.000397  ( 0.000867  0.017079  0.010229)
 86:   1526.04   0.001300    6.57  0.000266  ( 0.011921  0.009159 -0.006311)
 87:   1528.83   0.001039    5.25  0.000212  (-0.013023 -0.002584  0.005978)
 88:   1529.12   0.002964   14.98  0.000605  ( 0.004547  0.000146 -0.024170)
 89:   1532.79   0.001681    8.50  0.000342  ( 0.006326  0.017348 -0.001144)
 90:   1546.56   0.001811    9.15  0.000365  (-0.018355  0.000196 -0.005341)
 91:   1586.15   0.000180    0.91  0.000035  ( 0.002085  0.004776  0.002866)
 92:   1760.47   0.005043   25.49  0.000894  ( 0.023766 -0.007362 -0.016582)
 93:   3068.66   0.000924    4.67  0.000094  ( 0.004764 -0.002221 -0.008148)
 94:   3084.02   0.001152    5.82  0.000117  ( 0.003715 -0.001537 -0.010018)
 95:   3089.66   0.004249   21.47  0.000429  ( 0.008615 -0.017457  0.007085)
 96:   3091.82   0.001347    6.81  0.000136  ( 0.007765 -0.007005  0.005154)
 97:   3092.27   0.005493   27.76  0.000554  ( 0.006352 -0.000214 -0.022671)
 98:   3094.59   0.009591   48.47  0.000967  (-0.019391 -0.006317 -0.023479)
 99:   3095.68   0.019742   99.77  0.001990  (-0.016567  0.039990  0.010793)
100:   3101.56   0.011022   55.70  0.001109  (-0.021719 -0.022528 -0.011392)
101:   3115.33   0.005421   27.39  0.000543  ( 0.017561  0.008968 -0.012417)
102:   3140.33   0.008686   43.90  0.000863  ( 0.015393 -0.009463  0.023166)
103:   3151.51   0.003857   19.49  0.000382  (-0.000273  0.019247  0.003375)
104:   3156.55   0.004559   23.04  0.000451  ( 0.019825  0.007385 -0.001778)
105:   3160.00   0.001555    7.86  0.000154  (-0.003435  0.009926  0.006574)
106:   3169.94   0.005456   27.57  0.000537  ( 0.007300  0.006242 -0.021091)
107:   3173.77   0.000947    4.79  0.000093  ( 0.006230  0.006582 -0.003313)
108:   3175.57   0.007095   35.85  0.000697  ( 0.014578  0.021395 -0.005187)
109:   3176.92   0.003815   19.28  0.000375  (-0.005304 -0.003745  0.018237)
110:   3184.01   0.003761   19.01  0.000369  (-0.015353 -0.009141 -0.007026)
111:   3186.62   0.002284   11.54  0.000224  (-0.006473 -0.002169  0.013307)
112:   3197.47   0.002016   10.19  0.000197  (-0.013631  0.002143 -0.002517)
113:   3197.74   0.004390   22.18  0.000428  (-0.003814  0.004878 -0.019750)
114:   3201.23   0.004493   22.70  0.000438  (-0.015228  0.008447  0.011607)
115:   3210.79   0.002858   14.45  0.000278  (-0.011877  0.003686  0.011099)
116:   3301.27   0.001589    8.03  0.000150  (-0.005065 -0.010140 -0.004661)

--------------------------
THERMOCHEMISTRY AT 298.15K
--------------------------

Temperature         ...   298.15 K
Pressure            ...     1.00 atm
Total Mass          ...   204.36 AMU
Quasi RRHO          ...     True
Cut-Off Frequency   ...     1.00 cm^-1

Throughout the following assumptions are being made:
  (1) The electronic state is orbitally nondegenerate
  (2) There are no thermally accessible electronically excited states
  (3) Hindered rotations indicated by low frequency modes are not
      treated as such but are treated as vibrations and this may
      cause some error
  (4) All equations used are the standard statistical mechanics
      equations for an ideal gas
  (5) All vibrations are strictly harmonic

freq.      38.40  E(vib)   ...       0.54
freq.     105.01  E(vib)   ...       0.45
freq.     120.99  E(vib)   ...       0.44
freq.     136.01  E(vib)   ...       0.42
freq.     143.74  E(vib)   ...       0.41
freq.     172.65  E(vib)   ...       0.38
freq.     206.76  E(vib)   ...       0.35
freq.     220.90  E(vib)   ...       0.33
freq.     234.06  E(vib)   ...       0.32
freq.     244.17  E(vib)   ...       0.31
freq.     272.64  E(vib)   ...       0.29
freq.     286.60  E(vib)   ...       0.27
freq.     328.63  E(vib)   ...       0.24
freq.     350.60  E(vib)   ...       0.23
freq.     373.65  E(vib)   ...       0.21
freq.     375.12  E(vib)   ...       0.21
freq.     424.55  E(vib)   ...       0.18
freq.     447.24  E(vib)   ...       0.17
freq.     465.88  E(vib)   ...       0.16
freq.     480.08  E(vib)   ...       0.15
freq.     542.64  E(vib)   ...       0.12
freq.     547.15  E(vib)   ...       0.12
freq.     586.22  E(vib)   ...       0.11
freq.     645.93  E(vib)   ...       0.09
freq.     720.27  E(vib)   ...       0.07
freq.     746.70  E(vib)   ...       0.06
freq.     765.30  E(vib)   ...       0.06
freq.     778.79  E(vib)   ...       0.05
freq.     846.73  E(vib)   ...       0.04
freq.     860.28  E(vib)   ...       0.04
freq.     884.45  E(vib)   ...       0.04
freq.     905.01  E(vib)   ...       0.03
freq.     935.98  E(vib)   ...       0.03
freq.     941.57  E(vib)   ...       0.03
freq.     959.96  E(vib)   ...       0.03
freq.     982.94  E(vib)   ...       0.02
freq.     985.32  E(vib)   ...       0.02
freq.     993.25  E(vib)   ...       0.02
freq.    1010.03  E(vib)   ...       0.02
freq.    1015.75  E(vib)   ...       0.02
freq.    1028.92  E(vib)   ...       0.02
freq.    1038.23  E(vib)   ...       0.02
freq.    1051.87  E(vib)   ...       0.02
freq.    1064.55  E(vib)   ...       0.02
freq.    1089.13  E(vib)   ...       0.02
freq.    1108.76  E(vib)   ...       0.02
freq.    1126.90  E(vib)   ...       0.01
freq.    1153.23  E(vib)   ...       0.01
freq.    1160.53  E(vib)   ...       0.01
freq.    1174.33  E(vib)   ...       0.01
freq.    1179.91  E(vib)   ...       0.01
freq.    1201.07  E(vib)   ...       0.01
freq.    1213.87  E(vib)   ...       0.01
freq.    1220.66  E(vib)   ...       0.01
freq.    1257.08  E(vib)   ...       0.01
freq.    1259.47  E(vib)   ...       0.01
freq.    1262.74  E(vib)   ...       0.01
freq.    1286.49  E(vib)   ...       0.01
freq.    1295.17  E(vib)   ...       0.01
freq.    1315.58  E(vib)   ...       0.01
freq.    1325.31  E(vib)   ...       0.01
freq.    1336.91  E(vib)   ...       0.01
freq.    1353.85  E(vib)   ...       0.01
freq.    1359.56  E(vib)   ...       0.01
freq.    1363.42  E(vib)   ...       0.01
freq.    1376.74  E(vib)   ...       0.01
freq.    1393.51  E(vib)   ...       0.00
freq.    1404.79  E(vib)   ...       0.00
freq.    1421.28  E(vib)   ...       0.00
freq.    1426.73  E(vib)   ...       0.00
freq.    1445.86  E(vib)   ...       0.00
freq.    1451.57  E(vib)   ...       0.00
freq.    1456.30  E(vib)   ...       0.00
freq.    1468.64  E(vib)   ...       0.00
freq.    1473.52  E(vib)   ...       0.00
freq.    1510.48  E(vib)   ...       0.00
freq.    1516.29  E(vib)   ...       0.00
freq.    1518.60  E(vib)   ...       0.00
freq.    1521.97  E(vib)   ...       0.00
freq.    1525.46  E(vib)   ...       0.00
freq.    1526.04  E(vib)   ...       0.00
freq.    1528.83  E(vib)   ...       0.00
freq.    1529.12  E(vib)   ...       0.00
freq.    1532.79  E(vib)   ...       0.00
freq.    1546.56  E(vib)   ...       0.00
freq.    1586.15  E(vib)   ...       0.00
freq.    1760.47  E(vib)   ...       0.00
freq.    3068.66  E(vib)   ...       0.00
freq.    3084.02  E(vib)   ...       0.00
freq.    3089.66  E(vib)   ...       0.00
freq.    3091.82  E(vib)   ...       0.00
freq.    3092.27  E(vib)   ...       0.00
freq.    3094.59  E(vib)   ...       0.00
freq.    3095.68  E(vib)   ...       0.00
freq.    3101.56  E(vib)   ...       0.00
freq.    3115.33  E(vib)   ...       0.00
freq.    3140.33  E(vib)   ...       0.00
freq.    3151.51  E(vib)   ...       0.00
freq.    3156.55  E(vib)   ...       0.00
freq.    3160.00  E(vib)   ...       0.00
freq.    3169.94  E(vib)   ...       0.00
freq.    3173.77  E(vib)   ...       0.00
freq.    3175.57  E(vib)   ...       0.00
freq.    3176.92  E(vib)   ...       0.00
freq.    3184.01  E(vib)   ...       0.00
freq.    3186.62  E(vib)   ...       0.00
freq.    3197.47  E(vib)   ...       0.00
freq.    3197.74  E(vib)   ...       0.00
freq.    3201.23  E(vib)   ...       0.00
freq.    3210.79  E(vib)   ...       0.00
freq.    3301.27  E(vib)   ...       0.00

------------
INNER ENERGY
------------

The inner energy is: U= E(el) + E(ZPE) + E(vib) + E(rot) + E(trans)
    E(el)   - is the total energy from the electronic structure calculation
              = E(kin-el) + E(nuc-el) + E(el-el) + E(nuc-nuc)
    E(ZPE)  - the the zero temperature vibrational energy from the frequency calculation
    E(vib)  - the the finite temperature correction to E(ZPE) due to population
              of excited vibrational states
    E(rot)  - is the rotational thermal energy
    E(trans)- is the translational thermal energy

Summary of contributions to the inner energy U:
Electronic energy                ...    -99.91284958 Eh
Zero point energy                ...      0.36643986 Eh     229.94 kcal/mol
Thermal vibrational correction   ...      0.01182176 Eh       7.42 kcal/mol
Thermal rotational correction    ...      0.00141627 Eh       0.89 kcal/mol
Thermal translational correction ...      0.00141627 Eh       0.89 kcal/mol
-----------------------------------------------------------------------
Total thermal energy                    -99.53175542 Eh

Summary of corrections to the electronic energy:
(perhaps to be used in another calculation)
Total thermal correction                  0.01465430 Eh       9.20 kcal/mol
Non-thermal (ZPE) correction              0.36643986 Eh     229.94 kcal/mol
-----------------------------------------------------------------------
Total correction                          0.38109416 Eh     239.14 kcal/mol

Rotational constants in cm-1:     0.025502     0.019525     0.013041

                             ****ORCA TERMINATED NORMALLY****
TOTAL RUN TIME: 0 days 0 hours 33 minutes 56 seconds 209 msec
