                         Program Version 6.0.1  -  RELEASE   -
|  1> ! wB97X-3c OPT FREQ TightSCF
|  2> %pal
|  3>   nprocs 40
|  4> end
|  5> * xyz 0 1
|  6> C      3.489423    -0.350229    -0.682278
|  7> C      1.965676    -0.195192    -0.784497
|  8> C      1.508505     1.087959    -0.062899
|  9> C     -0.022496     1.214909    -0.057522
| 10> C     -0.670246    -0.006289     0.628434
| 11> C     -0.271139    -1.316612    -0.076510
| 12> C      1.223984    -1.393279    -0.225246
| 13> O      1.805449    -2.439607     0.024202
| 14> C     -2.184168     0.139754     0.698919
| 15> C     -2.804496     0.165406     1.889397
| 16> C     -3.020611     0.253564    -0.551748
| 17> H      3.800890    -0.472188     0.377597
| 18> H      3.993803     0.545559    -1.103438
| 19> H      3.824204    -1.236805    -1.262082
| 20> H      1.702870    -0.105409    -1.861736
| 21> H      1.878062     1.086954     0.986958
| 22> H      1.940410     1.975708    -0.574473
| 23> H     -0.379717     1.315368    -1.105023
| 24> H     -0.303831     2.140243     0.491105
| 25> H     -0.259118    -0.055423     1.663616
| 26> H     -0.721761    -1.373992    -1.089682
| 27> H     -0.640502    -2.182443     0.516286
| 28> H     -2.248151     0.084915     2.818157
| 29> H     -3.884115     0.267700     1.950995
| 30> H     -2.400343     0.214357    -1.469399
| 31> H     -3.750556    -0.582476    -0.591899
| 32> H     -3.572024     1.217547    -0.547234
| 33> *
| 34>
| 35>                          ****END OF INPUT****
 Total Charge           Charge          ....    0
 Multiplicity           Mult            ....    1
 Number of Electrons    NEL             ....   62
Dispersion correction           -0.031717975
FINAL SINGLE POINT ENERGY       -82.673623596584
Dispersion correction             ... done (  0.1 sec)
Dispersion correction           -0.032064596
FINAL SINGLE POINT ENERGY       -82.681243499256
Dispersion correction             ... done (  0.1 sec)
Dispersion correction           -0.032154370
FINAL SINGLE POINT ENERGY       -82.681814312504
Dispersion correction             ... done (  0.1 sec)
FINAL SINGLE POINT ENERGY       -82.682142614533
FINAL SINGLE POINT ENERGY       -82.682209202387
FINAL SINGLE POINT ENERGY       -82.682240572870
FINAL SINGLE POINT ENERGY       -82.682256149834
Dispersion correction             ... done (  0.1 sec)
Dispersion correction           -0.032168222
FINAL SINGLE POINT ENERGY       -82.682263206984
Dispersion correction             ... done (  0.1 sec)
Dispersion correction           -0.032173563
FINAL SINGLE POINT ENERGY       -82.682265819797
Dispersion correction             ... done (  0.1 sec)
                    ***********************HURRAY********************

CARTESIAN COORDINATES (ANGSTROEM)
---------------------------------
  C      3.447289   -0.356793   -0.772781
  C      1.943816   -0.195214   -0.760940
  C      1.490807    1.068336   -0.029348
  C     -0.019379    1.216409   -0.004646
  C     -0.685109    0.007186    0.642781
  C     -0.261389   -1.279623   -0.069851
  C      1.237763   -1.391018   -0.160560
  O      1.829306   -2.364521    0.235387
  C     -2.183884    0.136763    0.709242
  C     -2.808719    0.163029    1.878134
  C     -2.949677    0.237047   -0.583774
  H      3.833936   -0.438218    0.241989
  H      3.916586    0.501026   -1.252557
  H      3.742918   -1.258096   -1.304496
  H      1.576654   -0.123065   -1.791708
  H      1.873606    1.038284    0.994867
  H      1.948140    1.937483   -0.503898
  H     -0.387100    1.343537   -1.026176
  H     -0.299682    2.117322    0.542494
  H     -0.320753   -0.056366    1.671671
  H     -0.655791   -1.284379   -1.089064
  H     -0.644548   -2.158994    0.443271
  H     -2.264743    0.088039    2.810660
  H     -3.885650    0.258433    1.942627
  H     -2.300799    0.210186   -1.455608
  H     -3.658976   -0.583666   -0.679376
  H     -3.514618    1.166872   -0.628339

 Multiplicity           Mult            ....    1
 Number of Electrons    NEL             ....   62
 Basis Dimension        Dim             ....  223

ORBITAL ENERGIES
----------------

  NO   OCC          E(Eh)            E(eV)
   0   2.0000      -1.170072       -31.8393
   1   2.0000      -1.001235       -27.2450
   2   2.0000      -0.954646       -25.9772
   3   2.0000      -0.903826       -24.5944
   4   2.0000      -0.877502       -23.8780
   5   2.0000      -0.831260       -22.6197
   6   2.0000      -0.812073       -22.0976
   7   2.0000      -0.748201       -20.3596
   8   2.0000      -0.731334       -19.9006
   9   2.0000      -0.668478       -18.1902
  10   2.0000      -0.643847       -17.5200
  11   2.0000      -0.606775       -16.5112
  12   2.0000      -0.595118       -16.1940
  13   2.0000      -0.578481       -15.7413
  14   2.0000      -0.566516       -15.4157
  15   2.0000      -0.560160       -15.2427
  16   2.0000      -0.553641       -15.0653
  17   2.0000      -0.532400       -14.4873
  18   2.0000      -0.524921       -14.2838
  19   2.0000      -0.514912       -14.0115
  20   2.0000      -0.495319       -13.4783
  21   2.0000      -0.488817       -13.3014
  22   2.0000      -0.487216       -13.2578
  23   2.0000      -0.470940       -12.8149
  24   2.0000      -0.465576       -12.6690
  25   2.0000      -0.451959       -12.2984
  26   2.0000      -0.437471       -11.9042
  27   2.0000      -0.436002       -11.8642
  28   2.0000      -0.425113       -11.5679
  29   2.0000      -0.357515        -9.7285
  30   2.0000      -0.347180        -9.4472
  31   0.0000       0.060343         1.6420
  32   0.0000       0.081340         2.2134
  33   0.0000       0.088425         2.4062
  34   0.0000       0.091164         2.4807
  35   0.0000       0.103512         2.8167

MULLIKEN ATOMIC CHARGES
-----------------------
   0 C :   -0.031806
   1 C :   -0.122832
   2 C :   -0.037694
   3 C :   -0.024249
   4 C :   -0.111472
   5 C :   -0.026572
   6 C :    0.198103
   7 O :   -0.295814
   8 C :   -0.089382
   9 C :   -0.013773
  10 C :   -0.055566
  11 H :    0.038858
  12 H :    0.026948
  13 H :    0.042886
  14 H :    0.050818
  15 H :    0.034494
  16 H :    0.038561
  17 H :    0.022935
  18 H :    0.046971
  19 H :    0.040567
  20 H :    0.047610
  21 H :    0.054988
  22 H :    0.024997
  23 H :    0.019357
  24 H :    0.016607
  25 H :    0.052810
  26 H :    0.051652
Sum of atomic charges:    0.0000000

LOEWDIN ATOMIC CHARGES
----------------------
   0 C :   -0.100532
   1 C :   -0.078946
   2 C :   -0.070033
   3 C :   -0.072730
   4 C :   -0.066654
   5 C :   -0.060565
   6 C :    0.011718
   7 O :   -0.120053
   8 C :   -0.041622
   9 C :   -0.074971
  10 C :   -0.104038
  11 H :    0.049276
  12 H :    0.043856
  13 H :    0.051212
  14 H :    0.055264
  15 H :    0.048174
  16 H :    0.050376
  17 H :    0.041972
  18 H :    0.052699
  19 H :    0.055178
  20 H :    0.052288
  21 H :    0.060712
  22 H :    0.034054
  23 H :    0.035551
  24 H :    0.040736
  25 H :    0.053593
  26 H :    0.053486

  Mayer bond orders larger than 0.100000
B(  0-C ,  1-C ) :   1.0225 B(  0-C , 11-H ) :   0.9860 B(  0-C , 12-H ) :   0.9919
B(  0-C , 13-H ) :   0.9855 B(  1-C ,  2-C ) :   0.9595 B(  1-C ,  6-C ) :   0.9918
B(  1-C , 14-H ) :   0.9725 B(  2-C ,  3-C ) :   0.9998 B(  2-C , 15-H ) :   0.9906
B(  2-C , 16-H ) :   0.9984 B(  3-C ,  4-C ) :   0.9657 B(  3-C , 17-H ) :   0.9905
B(  3-C , 18-H ) :   0.9957 B(  4-C ,  5-C ) :   0.9620 B(  4-C ,  8-C ) :   1.0614
B(  4-C , 19-H ) :   0.9885 B(  5-C ,  6-C ) :   1.0171 B(  5-C , 20-H ) :   0.9700
B(  5-C , 21-H ) :   0.9862 B(  6-C ,  7-O ) :   1.9491 B(  8-C ,  9-C ) :   1.9456
B(  8-C , 10-C ) :   1.0198 B(  9-C , 22-H ) :   0.9858 B(  9-C , 23-H ) :   0.9862
B( 10-C , 24-H ) :   0.9902 B( 10-C , 25-H ) :   0.9787 B( 10-C , 26-H ) :   0.9790

Dispersion correction           -0.032174406
FINAL SINGLE POINT ENERGY       -82.682266984533

DIPOLE MOMENT
-------------

Method             : SCF
Type of density    : Electron Density
Multiplicity       :   1
Irrep              :   0
Energy             :   -82.6500925788606793 Eh
Relativity type    :
Basis              : AO
                                X                 Y                 Z
Electronic contribution:      1.027567078      -4.954380811       2.356772773
Nuclear contribution   :     -1.613826162       6.040898086      -2.865753951
                        -----------------------------------------
Total Dipole Moment    :     -0.586259084       1.086517275      -0.508981178
                        -----------------------------------------
Magnitude (a.u.)       :      1.335395575
Magnitude (Debye)      :      3.394305802

VIBRATIONAL FREQUENCIES
-----------------------

Scaling factor for frequencies =  1.000000000  (already applied!)

     0:       0.00 cm**-1
     1:       0.00 cm**-1
     2:       0.00 cm**-1
     3:       0.00 cm**-1
     4:       0.00 cm**-1
     5:       0.00 cm**-1
     6:    -173.20 cm**-1  ***imaginary mode***
     7:      66.57 cm**-1
     8:      75.77 cm**-1
     9:     109.14 cm**-1
    10:     171.83 cm**-1
    11:     209.62 cm**-1
    12:     216.93 cm**-1
    13:     279.98 cm**-1
    14:     295.09 cm**-1
    15:     325.14 cm**-1
    16:     337.16 cm**-1
    17:     431.69 cm**-1
    18:     453.89 cm**-1
    19:     512.53 cm**-1
    20:     514.47 cm**-1
    21:     578.33 cm**-1
    22:     641.48 cm**-1
    23:     677.03 cm**-1
    24:     748.86 cm**-1
    25:     762.25 cm**-1
    26:     833.61 cm**-1
    27:     884.94 cm**-1
    28:     921.61 cm**-1
    29:     931.20 cm**-1
    30:     941.25 cm**-1
    31:     974.77 cm**-1
    32:     991.30 cm**-1
    33:    1027.20 cm**-1
    34:    1046.65 cm**-1
    35:    1059.41 cm**-1
    36:    1076.21 cm**-1
    37:    1103.65 cm**-1
    38:    1114.08 cm**-1
    39:    1150.71 cm**-1
    40:    1174.58 cm**-1
    41:    1201.03 cm**-1
    42:    1248.03 cm**-1
    43:    1274.46 cm**-1
    44:    1300.47 cm**-1
    45:    1317.37 cm**-1
    46:    1347.66 cm**-1
    47:    1352.56 cm**-1
    48:    1358.90 cm**-1
    49:    1398.01 cm**-1
    50:    1403.27 cm**-1
    51:    1427.91 cm**-1
    52:    1438.12 cm**-1
    53:    1446.43 cm**-1
    54:    1456.66 cm**-1
    55:    1487.33 cm**-1
    56:    1501.83 cm**-1
    57:    1515.64 cm**-1
    58:    1519.11 cm**-1
    59:    1523.48 cm**-1
    60:    1525.61 cm**-1
    61:    1529.35 cm**-1
    62:    1533.12 cm**-1
    63:    1771.79 cm**-1
    64:    1866.12 cm**-1
    65:    3070.74 cm**-1
    66:    3092.24 cm**-1
    67:    3094.45 cm**-1
    68:    3099.81 cm**-1
    69:    3111.07 cm**-1
    70:    3112.24 cm**-1
    71:    3115.20 cm**-1
    72:    3152.68 cm**-1
    73:    3159.83 cm**-1
    74:    3194.40 cm**-1
    75:    3198.10 cm**-1
    76:    3202.58 cm**-1
    77:    3203.98 cm**-1
    78:    3213.50 cm**-1
    79:    3215.23 cm**-1
    80:    3298.86 cm**-1

IR SPECTRUM
-----------

 Mode   freq       eps      Int      T**2         TX        TY        TZ
       cm**-1   L/(mol*cm) km/mol    a.u.
----------------------------------------------------------------------------
  7:     66.57   0.000101    0.51  0.000473  (-0.011091 -0.010194 -0.015676)
  8:     75.77   0.000443    2.24  0.001826  (-0.004418  0.010953  0.041064)
  9:    109.14   0.000219    1.11  0.000626  ( 0.001089  0.004940  0.024503)
 10:    171.83   0.000056    0.28  0.000102  (-0.009859  0.002191  0.000638)
 11:    209.62   0.000038    0.19  0.000056  ( 0.005002  0.004328 -0.003509)
 12:    216.93   0.000029    0.15  0.000041  ( 0.001558 -0.003191 -0.005356)
 13:    279.98   0.000230    1.16  0.000256  ( 0.007734  0.011105 -0.008539)
 14:    295.09   0.000545    2.76  0.000577  (-0.016369 -0.017393  0.002521)
 15:    325.14   0.000418    2.11  0.000401  (-0.017736  0.002864  0.008842)
 16:    337.16   0.000312    1.57  0.000288  ( 0.013239  0.010361 -0.002415)
 17:    431.69   0.000403    2.04  0.000291  ( 0.016310 -0.001072 -0.004917)
 18:    453.89   0.000214    1.08  0.000147  (-0.002391 -0.010977  0.004551)
 19:    512.53   0.001924    9.72  0.001172  (-0.024468 -0.023446  0.004812)
 20:    514.47   0.000318    1.61  0.000193  ( 0.009801 -0.009773  0.001094)
 21:    578.33   0.001596    8.06  0.000861  (-0.002240  0.028856  0.004831)
 22:    641.48   0.000730    3.69  0.000355  ( 0.018730 -0.001601 -0.001372)
 23:    677.03   0.000540    2.73  0.000249  (-0.011627  0.006686 -0.008320)
 24:    748.86   0.000168    0.85  0.000070  ( 0.003460 -0.006600  0.003806)
 25:    762.25   0.000952    4.81  0.000390  (-0.012092 -0.010122  0.011870)
 26:    833.61   0.000063    0.32  0.000024  (-0.004534 -0.001633  0.000571)
 27:    884.94   0.000173    0.87  0.000061  ( 0.002786 -0.007136 -0.001489)
 28:    921.61   0.000342    1.73  0.000116  (-0.004508  0.003428 -0.009158)
 29:    931.20   0.000272    1.38  0.000091  ( 0.004461 -0.002881 -0.007938)
 30:    941.25   0.007970   40.28  0.002642  (-0.003283 -0.051263 -0.001953)
 31:    974.77   0.000510    2.58  0.000163  ( 0.009562 -0.004168 -0.007374)
 32:    991.30   0.000364    1.84  0.000114  ( 0.002271  0.009834  0.003548)
 33:   1027.20   0.000311    1.57  0.000095  ( 0.007765  0.002657  0.005212)
 34:   1046.65   0.000357    1.81  0.000107  (-0.002384  0.006873  0.007325)
 35:   1059.41   0.001380    6.98  0.000407  ( 0.002123  0.019834 -0.002952)
 36:   1076.21   0.000150    0.76  0.000043  ( 0.005353 -0.003780 -0.000735)
 37:   1103.65   0.001694    8.56  0.000479  (-0.019333 -0.006693  0.007782)
 38:   1114.08   0.001747    8.83  0.000489  ( 0.019714  0.005347 -0.008491)
 39:   1150.71   0.001681    8.50  0.000456  (-0.019971 -0.001494  0.007403)
 40:   1174.58   0.000199    1.00  0.000053  ( 0.004417 -0.005708 -0.000856)
 41:   1201.03   0.001462    7.39  0.000380  (-0.016173 -0.010708  0.001933)
 42:   1248.03   0.001869    9.44  0.000467  (-0.018686 -0.009185  0.005808)
 43:   1274.46   0.003608   18.23  0.000883  (-0.028940 -0.004954  0.004620)
 44:   1300.47   0.002828   14.29  0.000679  ( 0.024950  0.000283 -0.007493)
 45:   1317.37   0.001371    6.93  0.000325  ( 0.017506  0.004114 -0.001139)
 46:   1347.66   0.000009    0.05  0.000002  (-0.000536  0.001193 -0.000661)
 47:   1352.56   0.000456    2.30  0.000105  (-0.007262  0.002511 -0.006792)
 48:   1358.90   0.000025    0.13  0.000006  ( 0.001548 -0.001723 -0.000646)
 49:   1398.01   0.001644    8.31  0.000367  (-0.012032 -0.013642  0.006003)
 50:   1403.27   0.001781    9.00  0.000396  ( 0.016239 -0.010594 -0.004491)
 51:   1427.91   0.000574    2.90  0.000125  (-0.008343 -0.001690 -0.007273)
 52:   1438.12   0.005844   29.53  0.001268  (-0.035443 -0.000317 -0.003439)
 53:   1446.43   0.000750    3.79  0.000162  (-0.007771 -0.001712  0.009922)
 54:   1456.66   0.000664    3.36  0.000142  (-0.000460 -0.007851  0.008971)
 55:   1487.33   0.001486    7.51  0.000312  ( 0.014012 -0.000480 -0.010736)
 56:   1501.83   0.002060   10.41  0.000428  ( 0.012765  0.015364  0.005392)
 57:   1515.64   0.001571    7.94  0.000323  ( 0.015724 -0.007963 -0.003575)
 58:   1519.11   0.001004    5.07  0.000206  ( 0.007866  0.002229  0.011803)
 59:   1523.48   0.001624    8.21  0.000333  (-0.001701 -0.017693 -0.004093)
 60:   1525.61   0.003173   16.04  0.000649  (-0.000927 -0.004162  0.025118)
 61:   1529.35   0.002086   10.54  0.000426  ( 0.011756  0.014956  0.007984)
 62:   1533.12   0.001973    9.97  0.000402  ( 0.008387  0.013472 -0.012239)
 63:   1771.79   0.005096   25.75  0.000898  (-0.012432 -0.000306  0.027258)
 64:   1866.12   0.048810  246.67  0.008162  (-0.046441  0.074920 -0.019814)
 65:   3070.74   0.001723    8.71  0.000175  ( 0.008888  0.000676  0.009780)
 66:   3092.24   0.004107   20.75  0.000414  (-0.015586 -0.009256 -0.009266)
 67:   3094.45   0.001981   10.01  0.000200  (-0.004907 -0.011102 -0.007244)
 68:   3099.81   0.005167   26.11  0.000520  (-0.012636  0.014116 -0.012699)
 69:   3111.07   0.001871    9.45  0.000188  ( 0.007445  0.006617  0.009404)
 70:   3112.24   0.005679   28.70  0.000569  (-0.023158 -0.004242  0.003893)
 71:   3115.20   0.005421   27.39  0.000543  (-0.010125  0.000462 -0.020983)
 72:   3152.68   0.004294   21.70  0.000425  (-0.004607 -0.018830  0.007016)
 73:   3159.83   0.004716   23.83  0.000466  (-0.000110  0.005669  0.020824)
 74:   3194.40   0.000922    4.66  0.000090  ( 0.002968  0.006483 -0.006266)
 75:   3198.10   0.000782    3.95  0.000076  (-0.000426 -0.008723 -0.000249)
 76:   3202.58   0.002626   13.27  0.000256  ( 0.001940  0.009641 -0.012615)
 77:   3203.98   0.001016    5.13  0.000099  (-0.006430  0.000482  0.007575)
 78:   3213.50   0.002830   14.30  0.000275  (-0.011338  0.000503  0.012083)
 79:   3215.23   0.001742    8.80  0.000169  (-0.000486  0.009785  0.008549)
 80:   3298.86   0.001187    6.00  0.000112  (-0.009583  0.000953 -0.004416)

--------------------------
THERMOCHEMISTRY AT 298.15K
--------------------------

Temperature         ...   298.15 K
Pressure            ...     1.00 atm
Total Mass          ...   152.24 AMU
Quasi RRHO          ...     True
Cut-Off Frequency   ...     1.00 cm^-1

Throughout the following assumptions are being made:
  (1) The electronic state is orbitally nondegenerate
  (2) There are no thermally accessible electronically excited states
  (3) Hindered rotations indicated by low frequency modes are not
      treated as such but are treated as vibrations and this may
      cause some error
  (4) All equations used are the standard statistical mechanics
      equations for an ideal gas
  (5) All vibrations are strictly harmonic

freq.      66.57  E(vib)   ...       0.50
freq.      75.77  E(vib)   ...       0.49
freq.     109.14  E(vib)   ...       0.45
freq.     171.83  E(vib)   ...       0.38
freq.     209.62  E(vib)   ...       0.34
freq.     216.93  E(vib)   ...       0.34
freq.     279.98  E(vib)   ...       0.28
freq.     295.09  E(vib)   ...       0.27
freq.     325.14  E(vib)   ...       0.24
freq.     337.16  E(vib)   ...       0.24
freq.     431.69  E(vib)   ...       0.18
freq.     453.89  E(vib)   ...       0.16
freq.     512.53  E(vib)   ...       0.13
freq.     514.47  E(vib)   ...       0.13
freq.     578.33  E(vib)   ...       0.11
freq.     641.48  E(vib)   ...       0.09
freq.     677.03  E(vib)   ...       0.08
freq.     748.86  E(vib)   ...       0.06
freq.     762.25  E(vib)   ...       0.06
freq.     833.61  E(vib)   ...       0.04
freq.     884.94  E(vib)   ...       0.04
freq.     921.61  E(vib)   ...       0.03
freq.     931.20  E(vib)   ...       0.03
freq.     941.25  E(vib)   ...       0.03
freq.     974.77  E(vib)   ...       0.03
freq.     991.30  E(vib)   ...       0.02
freq.    1027.20  E(vib)   ...       0.02
freq.    1046.65  E(vib)   ...       0.02
freq.    1059.41  E(vib)   ...       0.02
freq.    1076.21  E(vib)   ...       0.02
freq.    1103.65  E(vib)   ...       0.02
freq.    1114.08  E(vib)   ...       0.01
freq.    1150.71  E(vib)   ...       0.01
freq.    1174.58  E(vib)   ...       0.01
freq.    1201.03  E(vib)   ...       0.01
freq.    1248.03  E(vib)   ...       0.01
freq.    1274.46  E(vib)   ...       0.01
freq.    1300.47  E(vib)   ...       0.01
freq.    1317.37  E(vib)   ...       0.01
freq.    1347.66  E(vib)   ...       0.01
freq.    1352.56  E(vib)   ...       0.01
freq.    1358.90  E(vib)   ...       0.01
freq.    1398.01  E(vib)   ...       0.00
freq.    1403.27  E(vib)   ...       0.00
freq.    1427.91  E(vib)   ...       0.00
freq.    1438.12  E(vib)   ...       0.00
freq.    1446.43  E(vib)   ...       0.00
freq.    1456.66  E(vib)   ...       0.00
freq.    1487.33  E(vib)   ...       0.00
freq.    1501.83  E(vib)   ...       0.00
freq.    1515.64  E(vib)   ...       0.00
freq.    1519.11  E(vib)   ...       0.00
freq.    1523.48  E(vib)   ...       0.00
freq.    1525.61  E(vib)   ...       0.00
freq.    1529.35  E(vib)   ...       0.00
freq.    1533.12  E(vib)   ...       0.00
freq.    1771.79  E(vib)   ...       0.00
freq.    1866.12  E(vib)   ...       0.00
freq.    3070.74  E(vib)   ...       0.00
freq.    3092.24  E(vib)   ...       0.00
freq.    3094.45  E(vib)   ...       0.00
freq.    3099.81  E(vib)   ...       0.00
freq.    3111.07  E(vib)   ...       0.00
freq.    3112.24  E(vib)   ...       0.00
freq.    3115.20  E(vib)   ...       0.00
freq.    3152.68  E(vib)   ...       0.00
freq.    3159.83  E(vib)   ...       0.00
freq.    3194.40  E(vib)   ...       0.00
freq.    3198.10  E(vib)   ...       0.00
freq.    3202.58  E(vib)   ...       0.00
freq.    3203.98  E(vib)   ...       0.00
freq.    3213.50  E(vib)   ...       0.00
freq.    3215.23  E(vib)   ...       0.00
freq.    3298.86  E(vib)   ...       0.00

------------
INNER ENERGY
------------

The inner energy is: U= E(el) + E(ZPE) + E(vib) + E(rot) + E(trans)
    E(el)   - is the total energy from the electronic structure calculation
              = E(kin-el) + E(nuc-el) + E(el-el) + E(nuc-nuc)
    E(ZPE)  - the the zero temperature vibrational energy from the frequency calculation
    E(vib)  - the the finite temperature correction to E(ZPE) due to population
              of excited vibrational states
    E(rot)  - is the rotational thermal energy
    E(trans)- is the translational thermal energy

Summary of contributions to the inner energy U:
Electronic energy                ...    -82.68226698 Eh
Zero point energy                ...      0.24585555 Eh     154.28 kcal/mol
Thermal vibrational correction   ...      0.00793845 Eh       4.98 kcal/mol
Thermal rotational correction    ...      0.00141627 Eh       0.89 kcal/mol
Thermal translational correction ...      0.00141627 Eh       0.89 kcal/mol
-----------------------------------------------------------------------
Total thermal energy                    -82.42564044 Eh

Summary of corrections to the electronic energy:
(perhaps to be used in another calculation)
Total thermal correction                  0.01077099 Eh       6.76 kcal/mol
Non-thermal (ZPE) correction              0.24585555 Eh     154.28 kcal/mol
-----------------------------------------------------------------------
Total correction                          0.25662654 Eh     161.04 kcal/mol

--------
ENTHALPY
--------

The enthalpy is H = U + kB*T
                kB is Boltzmann's constant
Total thermal energy              ...    -82.42564044 Eh
Thermal Enthalpy correction       ...      0.00094421 Eh       0.59 kcal/mol
-----------------------------------------------------------------------
Total Enthalpy                    ...    -82.42469623 Eh

Note: Only C1 symmetry has been detected, increase convergence thresholds
      if your molecule has a higher symmetry. Symmetry factor of 1.0 is
      used for the rotational entropy correction.

Note: Rotational entropy computed according to Herzberg
Infrared and Raman Spectra, Chapter V,1, Van Nostrand Reinhold, 1945
Point Group:  C1, Symmetry Number:   1
Rotational constants in cm-1:     0.073300     0.021858     0.019509

Vibrational entropy computed according to the QRRHO of S. Grimme
Chem.Eur.J. 2012 18 9955 using a reference frequency of 100.0 cm-1

-------
ENTROPY
-------

The entropy contributions are T*S = T*(S(el)+S(vib)+S(rot)+S(trans))
     S(el)   - electronic entropy
     S(vib)  - vibrational entropy
     S(rot)  - rotational entropy
     S(trans)- translational entropy
The entropies will be listed as multiplied by the temperature to get

                             ****ORCA TERMINATED NORMALLY****
TOTAL RUN TIME: 0 days 0 hours 12 minutes 45 seconds 370 msec
