                         Program Version 6.0.1  -  RELEASE   -
|  1> ! wB97X-3c OPT FREQ TightSCF
|  2> %pal
|  3>   nprocs 40
|  4> end
|  5> * xyz 0 1
|  6> C      3.832881     0.097376    -0.039766
|  7> C      2.333597     0.056604    -0.061004
|  8> C      1.598986     0.493909     1.050256
|  9> C      0.203117     0.422108     1.046370
| 10> C     -0.482374    -0.101056    -0.066405
| 11> C      0.260837    -0.555341    -1.169876
| 12> C      1.656839    -0.482751    -1.164201
| 13> C     -1.997134    -0.186785    -0.084582
| 14> C     -2.631116     1.205401     0.019986
| 15> C     -2.511274    -1.111949     1.024728
| 16> H      4.236060     0.223231    -1.067228
| 17> H      4.221774    -0.849969     0.388415
| 18> H      4.193033     0.948535     0.576586
| 19> H      2.106682     0.891458     1.920491
| 20> H     -0.340403     0.771967     1.914356
| 21> H     -0.238387    -0.970419    -2.036548
| 22> H      2.209799    -0.847001    -2.021336
| 23> H     -2.331421    -0.623292    -1.052409
| 24> H     -3.733909     1.129959    -0.091330
| 25> H     -2.407440     1.675619     1.001006
| 26> H     -2.244919     1.861157    -0.789540
| 27> H     -3.611772    -1.235872     0.936522
| 28> H     -2.282543    -0.698552     2.029898
| 29> H     -2.040912    -2.114335     0.932633
| 30> *
| 31>
| 32>                          ****END OF INPUT****
 Total Charge           Charge          ....    0
 Multiplicity           Mult            ....    1
 Number of Electrons    NEL             ....   54
Dispersion correction           -0.028336847
FINAL SINGLE POINT ENERGY       -65.417236335784
Dispersion correction             ... done (  0.1 sec)
Dispersion correction           -0.028558031
FINAL SINGLE POINT ENERGY       -65.422483891261
Dispersion correction             ... done (  0.1 sec)
Dispersion correction           -0.028582311
FINAL SINGLE POINT ENERGY       -65.422725688908
Dispersion correction             ... done (  0.1 sec)
Dispersion correction           -0.028576926
FINAL SINGLE POINT ENERGY       -65.422785731611
Dispersion correction             ... done (  0.1 sec)
Dispersion correction           -0.028571777
FINAL SINGLE POINT ENERGY       -65.422793004539
Dispersion correction             ... done (  0.1 sec)
                    ***********************HURRAY********************

CARTESIAN COORDINATES (ANGSTROEM)
---------------------------------
  C      3.828813    0.093891   -0.036940
  C      2.331505    0.041868   -0.056238
  C      1.584370    0.477709    1.030533
  C      0.204672    0.403983    1.027111
  C     -0.484844   -0.107686   -0.065059
  C      0.261417   -0.539059   -1.150076
  C      1.644183   -0.465459   -1.147465
  C     -1.991741   -0.188672   -0.077503
  C     -2.628960    1.191261    0.009481
  C     -2.512894   -1.105173    1.020852
  H      4.233164    0.206430   -1.041013
  H      4.243030   -0.822356    0.384714
  H      4.187595    0.925378    0.566671
  H      2.092435    0.884819    1.895775
  H     -0.340891    0.756007    1.892988
  H     -0.246912   -0.938546   -2.018683
  H      2.196600   -0.808044   -2.013398
  H     -2.278277   -0.625463   -1.037159
  H     -3.713908    1.120301   -0.068564
  H     -2.396157    1.673744    0.959030
  H     -2.270481    1.839726   -0.788865
  H     -3.596143   -1.207842    0.955763
  H     -2.276436   -0.709298    2.008782
  H     -2.070140   -2.097519    0.946287

 Multiplicity           Mult            ....    1
 Number of Electrons    NEL             ....   54
 Basis Dimension        Dim             ....  200

ORBITAL ENERGIES
----------------

  NO   OCC          E(Eh)            E(eV)
   0   2.0000      -1.006791       -27.3962
   1   2.0000      -0.951024       -25.8787
   2   2.0000      -0.894609       -24.3436
   3   2.0000      -0.881296       -23.9813
   4   2.0000      -0.818707       -22.2782
   5   2.0000      -0.816689       -22.2232
   6   2.0000      -0.740663       -20.1545
   7   2.0000      -0.725409       -19.7394
   8   2.0000      -0.685769       -18.6607
   9   2.0000      -0.617513       -16.8034
  10   2.0000      -0.590105       -16.0576
  11   2.0000      -0.566921       -15.4267
  12   2.0000      -0.547916       -14.9095
  13   2.0000      -0.542164       -14.7530
  14   2.0000      -0.537363       -14.6224
  15   2.0000      -0.526288       -14.3210
  16   2.0000      -0.525409       -14.2971
  17   2.0000      -0.495655       -13.4875
  18   2.0000      -0.493631       -13.4324
  19   2.0000      -0.476247       -12.9593
  20   2.0000      -0.465010       -12.6536
  21   2.0000      -0.448384       -12.2011
  22   2.0000      -0.442927       -12.0527
  23   2.0000      -0.426294       -11.6000
  24   2.0000      -0.424166       -11.5421
  25   2.0000      -0.344994        -9.3878
  26   2.0000      -0.325569        -8.8592
  27   0.0000       0.071393         1.9427
  28   0.0000       0.076219         2.0740
  29   0.0000       0.088358         2.4043
  30   0.0000       0.095331         2.5941
  31   0.0000       0.100314         2.7297

MULLIKEN ATOMIC CHARGES
-----------------------
   0 C :   -0.061128
   1 C :   -0.076709
   2 C :    0.004076
   3 C :    0.007133
   4 C :   -0.054218
   5 C :   -0.008948
   6 C :    0.001692
   7 C :   -0.110161
   8 C :   -0.034999
   9 C :   -0.034992
  10 H :    0.035075
  11 H :    0.051979
  12 H :    0.035259
  13 H :    0.010096
  14 H :    0.005577
  15 H :    0.010716
  16 H :    0.009881
  17 H :    0.029532
  18 H :    0.026378
  19 H :    0.023971
  20 H :    0.039712
  21 H :    0.026511
  22 H :    0.023801
  23 H :    0.039766
Sum of atomic charges:    0.0000000

LOEWDIN ATOMIC CHARGES
----------------------
   0 C :   -0.105286
   1 C :   -0.049070
   2 C :   -0.042058
   3 C :   -0.036653
   4 C :   -0.032556
   5 C :   -0.040804
   6 C :   -0.043311
   7 C :   -0.082354
   8 C :   -0.104250
   9 C :   -0.104267
  10 H :    0.049984
  11 H :    0.051298
  12 H :    0.049911
  13 H :    0.044699
  14 H :    0.042427
  15 H :    0.043880
  16 H :    0.044508
  17 H :    0.049341
  18 H :    0.043796
  19 H :    0.041550
  20 H :    0.046979
  21 H :    0.043797
  22 H :    0.041494
  23 H :    0.046945

  Mayer bond orders larger than 0.100000
B(  0-C ,  1-C ) :   1.0264 B(  0-C , 10-H ) :   0.9870 B(  0-C , 11-H ) :   0.9735
B(  0-C , 12-H ) :   0.9866 B(  1-C ,  2-C ) :   1.4336 B(  1-C ,  6-C ) :   1.4519
B(  2-C ,  3-C ) :   1.4685 B(  2-C , 13-H ) :   0.9864 B(  3-C ,  4-C ) :   1.4364
B(  3-C , 14-H ) :   0.9864 B(  4-C ,  5-C ) :   1.4634 B(  4-C ,  7-C ) :   1.0217
B(  5-C ,  6-C ) :   1.4443 B(  5-C , 15-H ) :   0.9855 B(  6-C , 16-H ) :   0.9860
B(  7-C ,  8-C ) :   0.9919 B(  7-C ,  9-C ) :   0.9921 B(  7-C , 17-H ) :   0.9972
B(  8-C , 18-H ) :   0.9925 B(  8-C , 19-H ) :   0.9904 B(  8-C , 20-H ) :   0.9929
B(  9-C , 21-H ) :   0.9925 B(  9-C , 22-H ) :   0.9904 B(  9-C , 23-H ) :   0.9928

Dispersion correction           -0.028571262
FINAL SINGLE POINT ENERGY       -65.422794036085

DIPOLE MOMENT
-------------

Method             : SCF
Type of density    : Electron Density
Multiplicity       :   1
Irrep              :   0
Energy             :   -65.3942227742319773 Eh
Relativity type    :
Basis              : AO
                                X                 Y                 Z
Electronic contribution:      6.039850292      -0.552255242      -2.098327156
Nuclear contribution   :     -6.029866571       0.532040604       2.095936719
                        -----------------------------------------
Total Dipole Moment    :      0.009983721      -0.020214638      -0.002390437
                        -----------------------------------------
Magnitude (a.u.)       :      0.022672019
Magnitude (Debye)      :      0.057627693

VIBRATIONAL FREQUENCIES
-----------------------

Scaling factor for frequencies =  1.000000000  (already applied!)

     0:       0.00 cm**-1
     1:       0.00 cm**-1
     2:       0.00 cm**-1
     3:       0.00 cm**-1
     4:       0.00 cm**-1
     5:       0.00 cm**-1
     6:      29.59 cm**-1
     7:      39.28 cm**-1
     8:      95.62 cm**-1
     9:     195.32 cm**-1
    10:     215.35 cm**-1
    11:     239.01 cm**-1
    12:     263.49 cm**-1
    13:     297.75 cm**-1
    14:     364.45 cm**-1
    15:     396.33 cm**-1
    16:     423.72 cm**-1
    17:     457.97 cm**-1
    18:     547.55 cm**-1
    19:     560.81 cm**-1
    20:     668.54 cm**-1
    21:     718.57 cm**-1
    22:     756.21 cm**-1
    23:     846.63 cm**-1
    24:     854.09 cm**-1
    25:     870.31 cm**-1
    26:     939.08 cm**-1
    27:     952.89 cm**-1
    28:     986.12 cm**-1
    29:     994.36 cm**-1
    30:    1010.24 cm**-1
    31:    1027.71 cm**-1
    32:    1060.54 cm**-1
    33:    1087.72 cm**-1
    34:    1103.07 cm**-1
    35:    1157.28 cm**-1
    36:    1172.11 cm**-1
    37:    1201.21 cm**-1
    38:    1232.26 cm**-1
    39:    1273.96 cm**-1
    40:    1277.07 cm**-1
    41:    1331.26 cm**-1
    42:    1361.39 cm**-1
    43:    1381.40 cm**-1
    44:    1413.52 cm**-1
    45:    1435.19 cm**-1
    46:    1448.56 cm**-1
    47:    1451.18 cm**-1
    48:    1486.13 cm**-1
    49:    1515.12 cm**-1
    50:    1519.37 cm**-1
    51:    1520.51 cm**-1
    52:    1526.42 cm**-1
    53:    1532.36 cm**-1
    54:    1537.57 cm**-1
    55:    1601.13 cm**-1
    56:    1687.21 cm**-1
    57:    1734.90 cm**-1
    58:    3097.58 cm**-1
    59:    3099.89 cm**-1
    60:    3102.75 cm**-1
    61:    3107.50 cm**-1
    62:    3186.40 cm**-1
    63:    3189.80 cm**-1
    64:    3191.74 cm**-1
    65:    3196.16 cm**-1
    66:    3197.35 cm**-1
    67:    3209.42 cm**-1
    68:    3232.36 cm**-1
    69:    3234.27 cm**-1
    70:    3250.15 cm**-1
    71:    3253.68 cm**-1

IR SPECTRUM
-----------

 Mode   freq       eps      Int      T**2         TX        TY        TZ
       cm**-1   L/(mol*cm) km/mol    a.u.
----------------------------------------------------------------------------
  6:     29.59   0.000050    0.25  0.000531  (-0.001032  0.008900  0.021225)
  7:     39.28   0.000013    0.07  0.000106  ( 0.000527 -0.010257 -0.000380)
  8:     95.62   0.000202    1.02  0.000661  ( 0.000177 -0.023402  0.010623)
  9:    195.32   0.000068    0.34  0.000109  ( 0.003256 -0.003835 -0.009137)
 10:    215.35   0.000047    0.24  0.000068  (-0.000530 -0.007524  0.003291)
 11:    239.01   0.000027    0.14  0.000035  ( 0.000084  0.005561 -0.002061)
 12:    263.49   0.000023    0.12  0.000027  (-0.004060  0.001060  0.003108)
 13:    297.75   0.000024    0.12  0.000026  ( 0.001178  0.001994  0.004506)
 14:    364.45   0.000027    0.14  0.000023  (-0.001517 -0.001827 -0.004153)
 15:    396.33   0.000385    1.95  0.000303  ( 0.000924 -0.015960  0.006906)
 16:    423.72   0.000002    0.01  0.000002  ( 0.000117 -0.000801  0.001004)
 17:    457.97   0.000014    0.07  0.000009  (-0.002869 -0.000960 -0.000332)
 18:    547.55   0.000050    0.25  0.000028  ( 0.000714  0.005211  0.000786)
 19:    560.81   0.004962   25.07  0.002761  ( 0.003584 -0.047959  0.021166)
 20:    668.54   0.000010    0.05  0.000005  ( 0.000472  0.000597  0.001992)
 21:    718.57   0.000082    0.42  0.000036  (-0.004503 -0.003866 -0.000667)
 22:    756.21   0.000835    4.22  0.000345  (-0.000012 -0.016960  0.007545)
 23:    846.63   0.000867    4.38  0.000320  ( 0.001349 -0.016078  0.007707)
 24:    854.09   0.006159   31.12  0.002250  (-0.000386  0.043626 -0.018626)
 25:    870.31   0.000006    0.03  0.000002  ( 0.000032  0.000391 -0.001404)
 26:    939.08   0.000138    0.70  0.000046  ( 0.003492 -0.002371 -0.005282)
 27:    952.89   0.000192    0.97  0.000063  (-0.000158  0.007326 -0.003044)
 28:    986.12   0.000145    0.73  0.000046  (-0.002908  0.005594 -0.002482)
 29:    994.36   0.000037    0.19  0.000012  ( 0.000006  0.003091 -0.001402)
 30:   1010.24   0.000000    0.00  0.000000  ( 0.000114 -0.000286  0.000088)
 31:   1027.71   0.000065    0.33  0.000020  (-0.004407 -0.000087  0.000430)
 32:   1060.54   0.000979    4.95  0.000288  ( 0.016653  0.002063 -0.002576)
 33:   1087.72   0.002061   10.41  0.000591  (-0.017815  0.015115 -0.006739)
 34:   1103.07   0.002769   13.99  0.000783  ( 0.027593  0.002957  0.003617)
 35:   1157.28   0.001833    9.26  0.000494  ( 0.004532 -0.008476 -0.020046)
 36:   1172.11   0.000206    1.04  0.000055  ( 0.000153 -0.006812  0.002884)
 37:   1201.21   0.000131    0.66  0.000034  (-0.005676 -0.000661 -0.001201)
 38:   1232.26   0.000091    0.46  0.000023  ( 0.004595 -0.000570 -0.001260)
 39:   1273.96   0.000007    0.04  0.000002  ( 0.000060  0.001219  0.000459)
 40:   1277.07   0.000309    1.56  0.000075  (-0.008564  0.000621 -0.001294)
 41:   1331.26   0.000547    2.77  0.000128  (-0.011126 -0.001337 -0.001658)
 42:   1361.39   0.000466    2.35  0.000107  ( 0.010253  0.000914  0.000902)
 43:   1381.40   0.000081    0.41  0.000018  (-0.000184  0.003899 -0.001773)
 44:   1413.52   0.000894    4.52  0.000197  (-0.013775  0.000510  0.002709)
 45:   1435.19   0.002343   11.84  0.000509  (-0.001024  0.020647 -0.009059)
 46:   1448.56   0.000229    1.16  0.000049  ( 0.006483 -0.000635  0.002615)
 47:   1451.18   0.001615    8.16  0.000347  (-0.011341  0.005692  0.013645)
 48:   1486.13   0.000129    0.65  0.000027  ( 0.003668 -0.001179 -0.003487)
 49:   1515.12   0.000018    0.09  0.000004  (-0.000189  0.001802 -0.000584)
 50:   1519.37   0.000824    4.16  0.000169  (-0.000594  0.012038 -0.004890)
 51:   1520.51   0.001751    8.85  0.000359  (-0.000447 -0.017447  0.007406)
 52:   1526.42   0.004169   21.07  0.000852  (-0.002263  0.011278  0.026834)
 53:   1532.36   0.001727    8.73  0.000352  ( 0.001388  0.007506  0.017129)
 54:   1537.57   0.001716    8.67  0.000348  ( 0.013369  0.006075  0.011516)
 55:   1601.13   0.005881   29.72  0.001146  (-0.033837 -0.000941 -0.000642)
 56:   1687.21   0.000042    0.21  0.000008  ( 0.000876 -0.001056 -0.002442)
 57:   1734.90   0.000073    0.37  0.000013  (-0.003174 -0.000334 -0.001720)
 58:   3097.58   0.006093   30.79  0.000614  ( 0.001706 -0.022821  0.009496)
 59:   3099.89   0.005986   30.25  0.000603  ( 0.016117 -0.006168 -0.017459)
 60:   3102.75   0.004167   21.06  0.000419  (-0.018017 -0.004541 -0.008593)
 61:   3107.50   0.006059   30.62  0.000608  ( 0.024662  0.000100  0.000416)
 62:   3186.40   0.000009    0.05  0.000001  ( 0.000035  0.000941 -0.000194)
 63:   3189.80   0.009446   47.74  0.000924  (-0.026239 -0.007664 -0.013302)
 64:   3191.74   0.001509    7.63  0.000148  (-0.003731 -0.010541  0.004747)
 65:   3196.16   0.002063   10.43  0.000201  ( 0.001000 -0.012908  0.005819)
 66:   3197.35   0.004098   20.71  0.000400  (-0.012884  0.005598  0.014236)
 67:   3209.42   0.001350    6.82  0.000131  ( 0.000407 -0.004531 -0.010515)
 68:   3232.36   0.002312   11.68  0.000223  (-0.014901 -0.000953 -0.000535)
 69:   3234.27   0.001097    5.54  0.000106  ( 0.009765  0.001659  0.002784)
 70:   3250.15   0.004780   24.16  0.000459  (-0.001873  0.008382  0.019627)
 71:   3253.68   0.001014    5.12  0.000097  (-0.000697  0.003951  0.009007)

--------------------------
THERMOCHEMISTRY AT 298.15K
--------------------------

Temperature         ...   298.15 K
Pressure            ...     1.00 atm
Total Mass          ...   134.22 AMU
Quasi RRHO          ...     True
Cut-Off Frequency   ...     1.00 cm^-1

Throughout the following assumptions are being made:
  (1) The electronic state is orbitally nondegenerate
  (2) There are no thermally accessible electronically excited states
  (3) Hindered rotations indicated by low frequency modes are not
      treated as such but are treated as vibrations and this may
      cause some error
  (4) All equations used are the standard statistical mechanics
      equations for an ideal gas
  (5) All vibrations are strictly harmonic

freq.      29.59  E(vib)   ...       0.55
freq.      39.28  E(vib)   ...       0.54
freq.      95.62  E(vib)   ...       0.47
freq.     195.32  E(vib)   ...       0.36
freq.     215.35  E(vib)   ...       0.34
freq.     239.01  E(vib)   ...       0.32
freq.     263.49  E(vib)   ...       0.29
freq.     297.75  E(vib)   ...       0.27
freq.     364.45  E(vib)   ...       0.22
freq.     396.33  E(vib)   ...       0.20
freq.     423.72  E(vib)   ...       0.18
freq.     457.97  E(vib)   ...       0.16
freq.     547.55  E(vib)   ...       0.12
freq.     560.81  E(vib)   ...       0.11
freq.     668.54  E(vib)   ...       0.08
freq.     718.57  E(vib)   ...       0.07
freq.     756.21  E(vib)   ...       0.06
freq.     846.63  E(vib)   ...       0.04
freq.     854.09  E(vib)   ...       0.04
freq.     870.31  E(vib)   ...       0.04
freq.     939.08  E(vib)   ...       0.03
freq.     952.89  E(vib)   ...       0.03
freq.     986.12  E(vib)   ...       0.02
freq.     994.36  E(vib)   ...       0.02
freq.    1010.24  E(vib)   ...       0.02
freq.    1027.71  E(vib)   ...       0.02
freq.    1060.54  E(vib)   ...       0.02
freq.    1087.72  E(vib)   ...       0.02
freq.    1103.07  E(vib)   ...       0.02
freq.    1157.28  E(vib)   ...       0.01
freq.    1172.11  E(vib)   ...       0.01
freq.    1201.21  E(vib)   ...       0.01
freq.    1232.26  E(vib)   ...       0.01
freq.    1273.96  E(vib)   ...       0.01
freq.    1277.07  E(vib)   ...       0.01
freq.    1331.26  E(vib)   ...       0.01
freq.    1361.39  E(vib)   ...       0.01
freq.    1381.40  E(vib)   ...       0.01
freq.    1413.52  E(vib)   ...       0.00
freq.    1435.19  E(vib)   ...       0.00
freq.    1448.56  E(vib)   ...       0.00
freq.    1451.18  E(vib)   ...       0.00
freq.    1486.13  E(vib)   ...       0.00
freq.    1515.12  E(vib)   ...       0.00
freq.    1519.37  E(vib)   ...       0.00
freq.    1520.51  E(vib)   ...       0.00
freq.    1526.42  E(vib)   ...       0.00
freq.    1532.36  E(vib)   ...       0.00
freq.    1537.57  E(vib)   ...       0.00
freq.    1601.13  E(vib)   ...       0.00
freq.    1687.21  E(vib)   ...       0.00
freq.    1734.90  E(vib)   ...       0.00
freq.    3097.58  E(vib)   ...       0.00
freq.    3099.89  E(vib)   ...       0.00
freq.    3102.75  E(vib)   ...       0.00
freq.    3107.50  E(vib)   ...       0.00
freq.    3186.40  E(vib)   ...       0.00
freq.    3189.80  E(vib)   ...       0.00
freq.    3191.74  E(vib)   ...       0.00
freq.    3196.16  E(vib)   ...       0.00
freq.    3197.35  E(vib)   ...       0.00
freq.    3209.42  E(vib)   ...       0.00
freq.    3232.36  E(vib)   ...       0.00
freq.    3234.27  E(vib)   ...       0.00
freq.    3250.15  E(vib)   ...       0.00
freq.    3253.68  E(vib)   ...       0.00

------------
INNER ENERGY
------------

The inner energy is: U= E(el) + E(ZPE) + E(vib) + E(rot) + E(trans)
    E(el)   - is the total energy from the electronic structure calculation
              = E(kin-el) + E(nuc-el) + E(el-el) + E(nuc-nuc)
    E(ZPE)  - the the zero temperature vibrational energy from the frequency calculation
    E(vib)  - the the finite temperature correction to E(ZPE) due to population
              of excited vibrational states
    E(rot)  - is the rotational thermal energy
    E(trans)- is the translational thermal energy

Summary of contributions to the inner energy U:
Electronic energy                ...    -65.42279404 Eh
Zero point energy                ...      0.21721989 Eh     136.31 kcal/mol
Thermal vibrational correction   ...      0.00756963 Eh       4.75 kcal/mol
Thermal rotational correction    ...      0.00141627 Eh       0.89 kcal/mol
Thermal translational correction ...      0.00141627 Eh       0.89 kcal/mol
-----------------------------------------------------------------------
Total thermal energy                    -65.19517197 Eh

Summary of corrections to the electronic energy:
(perhaps to be used in another calculation)
Total thermal correction                  0.01040218 Eh       6.53 kcal/mol
Non-thermal (ZPE) correction              0.21721989 Eh     136.31 kcal/mol
-----------------------------------------------------------------------
Total correction                          0.22762207 Eh     142.83 kcal/mol

--------
ENTHALPY
--------

The enthalpy is H = U + kB*T
                kB is Boltzmann's constant
Total thermal energy              ...    -65.19517197 Eh
Thermal Enthalpy correction       ...      0.00094421 Eh       0.59 kcal/mol
-----------------------------------------------------------------------
Total Enthalpy                    ...    -65.19422776 Eh

Note: Only C1 symmetry has been detected, increase convergence thresholds
      if your molecule has a higher symmetry. Symmetry factor of 1.0 is
      used for the rotational entropy correction.

Note: Rotational entropy computed according to Herzberg
Infrared and Raman Spectra, Chapter V,1, Van Nostrand Reinhold, 1945
Point Group:  C1, Symmetry Number:   1
Rotational constants in cm-1:     0.110531     0.024580     0.023177

Vibrational entropy computed according to the QRRHO of S. Grimme
Chem.Eur.J. 2012 18 9955 using a reference frequency of 100.0 cm-1

-------
ENTROPY
-------

The entropy contributions are T*S = T*(S(el)+S(vib)+S(rot)+S(trans))
     S(el)   - electronic entropy
     S(vib)  - vibrational entropy
     S(rot)  - rotational entropy
     S(trans)- translational entropy
The entropies will be listed as multiplied by the temperature to get
units of energy

Electronic entropy                ...      0.00000000 Eh      0.00 kcal/mol
Vibrational entropy               ...      0.01311418 Eh      8.23 kcal/mol
Rotational entropy                ...      0.01407729 Eh      8.83 kcal/mol
Translational entropy             ...      0.01928809 Eh     12.10 kcal/mol
-----------------------------------------------------------------------
Final entropy term                ...      0.04647955 Eh     29.17 kcal/mol

                             ****ORCA TERMINATED NORMALLY****
TOTAL RUN TIME: 0 days 0 hours 6 minutes 36 seconds 467 msec
