                         Program Version 6.0.1  -  RELEASE   -
|  1> ! wB97X-3c OPT FREQ TightSCF
|  2> %pal
|  3>   nprocs 40
|  4> end
|  5> * xyz 0 1
|  6> C      2.708256    -2.096968    -1.748056
|  7> C      2.098369    -1.279725    -0.642820
|  8> C      0.773409    -1.065668    -0.613927
|  9> C      0.154617    -0.247478     0.511094
| 10> C      1.016836     1.016585     0.872367
| 11> C      2.523854     0.863296     0.498051
| 12> C      2.958228    -0.600625     0.390113
| 13> C      0.471780     2.344143     0.341330
| 14> C      1.056549     3.492176     0.727044
| 15> C     -0.773639     2.452052    -0.514201
| 16> C     -1.397324     1.112889    -0.906881
| 17> C     -1.340124     0.101813     0.255743
| 18> C     -2.272554    -1.136399     0.000638
| 19> C     -2.001772    -2.296734     0.976953
| 20> C     -3.761218    -0.750491     0.109850
| 21> H      3.810616    -2.164499    -1.637755
| 22> H      2.479244    -1.631465    -2.729985
| 23> H      2.290742    -3.125705    -1.726081
| 24> H      0.152589    -1.490047    -1.396356
| 25> H      0.197724    -0.895767     1.413502
| 26> H      0.974590     1.100057     1.983024
| 27> H      2.726866     1.354608    -0.480678
| 28> H      3.154995     1.369918     1.260342
| 29> H      2.829034    -1.104961     1.372361
| 30> H      4.033032    -0.648344     0.112876
| 31> H      0.672335     4.453129     0.396848
| 32> H      1.920057     3.491160     1.384698
| 33> H     -0.534880     3.016608    -1.442121
| 34> H     -1.532391     3.038691     0.050068
| 35> H     -0.874586     0.709339    -1.800885
| 36> H     -2.440430     1.316343    -1.217788
| 37> H     -1.716023     0.606958     1.175354
| 38> H     -2.107633    -1.518947    -1.029848
| 39> H     -2.043435    -1.940037     2.028490
| 40> H     -1.011523    -2.756655     0.780556
| 41> H     -2.753940    -3.103906     0.845881
| 42> H     -4.061480    -0.049250    -0.692795
| 43> H     -3.975775    -0.287110     1.096660
| 44> H     -4.404997    -1.648984    -0.003667
| 45> *
| 46>
| 47>                          ****END OF INPUT****
 Total Charge           Charge          ....    0
 Multiplicity           Mult            ....    1
 Number of Electrons    NEL             ....   84
Dispersion correction           -0.051808514
FINAL SINGLE POINT ENERGY       -99.910171616964
Dispersion correction             ... done (  0.1 sec)
Dispersion correction           -0.052801517
FINAL SINGLE POINT ENERGY       -99.920714140996
Dispersion correction             ... done (  0.1 sec)
Dispersion correction           -0.052846920
FINAL SINGLE POINT ENERGY       -99.921497089687
Dispersion correction             ... done (  0.1 sec)
FINAL SINGLE POINT ENERGY       -99.921845791816
FINAL SINGLE POINT ENERGY       -99.922088078560
FINAL SINGLE POINT ENERGY       -99.922714168475
FINAL SINGLE POINT ENERGY       -99.923516425623
FINAL SINGLE POINT ENERGY       -99.924250018076
FINAL SINGLE POINT ENERGY       -99.925575388223
FINAL SINGLE POINT ENERGY       -99.927919826237
FINAL SINGLE POINT ENERGY       -99.939518700467
FINAL SINGLE POINT ENERGY       -99.940884510009
FINAL SINGLE POINT ENERGY       -99.942171516811
FINAL SINGLE POINT ENERGY       -99.940113146705
FINAL SINGLE POINT ENERGY       -99.942571701448
FINAL SINGLE POINT ENERGY       -99.942658626665
FINAL SINGLE POINT ENERGY       -99.942684623961
Dispersion correction             ... done (  0.1 sec)
Dispersion correction           -0.053866743
FINAL SINGLE POINT ENERGY       -99.942691512248
Dispersion correction             ... done (  0.1 sec)
Dispersion correction           -0.053877549
FINAL SINGLE POINT ENERGY       -99.942694591176
Dispersion correction             ... done (  0.1 sec)
                    ***********************HURRAY********************

CARTESIAN COORDINATES (ANGSTROEM)
---------------------------------
  C      2.661542   -1.688639   -1.833187
  C      2.032625   -0.934374   -0.706736
  C      0.733742   -1.005343   -0.444978
  C      0.049319   -0.262499    0.668026
  C      0.861373    0.980437    1.062272
  C      2.299233    0.553708    1.317236
  C      2.958400   -0.076067    0.098558
  C      0.691916    2.115305    0.081994
  C      1.680367    2.877478   -0.364836
  C     -0.729183    2.391371   -0.309473
  C     -1.467775    1.134759   -0.734559
  C     -1.414022    0.076779    0.357368
  C     -2.292147   -1.143421    0.039432
  C     -2.064660   -2.299525    1.002439
  C     -3.769801   -0.774181    0.045509
  H      3.434016   -2.366368   -1.466079
  H      3.146306   -1.003575   -2.531042
  H      1.928035   -2.273314   -2.384591
  H      0.123745   -1.653919   -1.063305
  H      0.048100   -0.907853    1.550546
  H      0.443313    1.340077    2.009857
  H      2.894195    1.392559    1.679134
  H      2.283286   -0.178734    2.126889
  H      3.813342   -0.678083    0.417158
  H      3.371706    0.686425   -0.565225
  H      1.479318    3.700187   -1.039194
  H      2.710569    2.731144   -0.075407
  H     -0.757002    3.143256   -1.097597
  H     -1.247901    2.820806    0.554169
  H     -1.017105    0.735433   -1.647186
  H     -2.497340    1.393353   -0.976079
  H     -1.823684    0.524139    1.273045
  H     -2.045305   -1.489055   -0.969008
  H     -2.224724   -1.981851    2.034979
  H     -1.060322   -2.712102    0.931055
  H     -2.765616   -3.108490    0.797201
  H     -4.014598   -0.008728   -0.687331
  H     -4.069555   -0.404931    1.028319
  H     -4.383710   -1.646166   -0.179372

 Multiplicity           Mult            ....    1
 Number of Electrons    NEL             ....   84
 Basis Dimension        Dim             ....  315

ORBITAL ENERGIES
----------------

  NO   OCC          E(Eh)            E(eV)
   0   2.0000      -1.007311       -27.4103
   1   2.0000      -0.960402       -26.1339
   2   2.0000      -0.943793       -25.6819
   3   2.0000      -0.900570       -24.5058
   4   2.0000      -0.892469       -24.2853
   5   2.0000      -0.862984       -23.4830
   6   2.0000      -0.816562       -22.2198
   7   2.0000      -0.811935       -22.0939
   8   2.0000      -0.802783       -21.8448
   9   2.0000      -0.753416       -20.5015
  10   2.0000      -0.724692       -19.7199
  11   2.0000      -0.717563       -19.5259
  12   2.0000      -0.676331       -18.4039
  13   2.0000      -0.657127       -17.8813
  14   2.0000      -0.613540       -16.6953
  15   2.0000      -0.595954       -16.2167
  16   2.0000      -0.591632       -16.0991
  17   2.0000      -0.571104       -15.5405
  18   2.0000      -0.566525       -15.4159
  19   2.0000      -0.556201       -15.1350
  20   2.0000      -0.546465       -14.8701
  21   2.0000      -0.536680       -14.6038
  22   2.0000      -0.526487       -14.3264
  23   2.0000      -0.515122       -14.0172
  24   2.0000      -0.506655       -13.7868
  25   2.0000      -0.504760       -13.7352
  26   2.0000      -0.497767       -13.5449
  27   2.0000      -0.491961       -13.3869
  28   2.0000      -0.489546       -13.3212
  29   2.0000      -0.474793       -12.9198
  30   2.0000      -0.466923       -12.7056
  31   2.0000      -0.463810       -12.6209
  32   2.0000      -0.455535       -12.3957
  33   2.0000      -0.441432       -12.0120
  34   2.0000      -0.439294       -11.9538
  35   2.0000      -0.423453       -11.5227
  36   2.0000      -0.422597       -11.4995
  37   2.0000      -0.402663       -10.9570
  38   2.0000      -0.397349       -10.8124
  39   2.0000      -0.385563       -10.4917
  40   2.0000      -0.340766        -9.2727
  41   2.0000      -0.326914        -8.8958
  42   0.0000       0.074681         2.0322
  43   0.0000       0.088601         2.4110
  44   0.0000       0.095325         2.5939
  45   0.0000       0.097400         2.6504
  46   0.0000       0.103898         2.8272

MULLIKEN ATOMIC CHARGES
-----------------------
   0 C :   -0.052911
   1 C :   -0.044252
   2 C :    0.049217
   3 C :   -0.098658
   4 C :   -0.101273
   5 C :   -0.027163
   6 C :   -0.058874
   7 C :   -0.026104
   8 C :   -0.020294
   9 C :   -0.036198
  10 C :   -0.015103
  11 C :   -0.062385
  12 C :   -0.100469
  13 C :   -0.037901
  14 C :   -0.036631
  15 H :    0.035221
  16 H :    0.036142
  17 H :    0.027568
  18 H :   -0.015966
  19 H :    0.040014
  20 H :    0.048290
  21 H :    0.033730
  22 H :    0.029983
  23 H :    0.035901
  24 H :    0.032385
  25 H :    0.016734
  26 H :    0.011969
  27 H :    0.025850
  28 H :    0.038125
  29 H :    0.037073
  30 H :    0.028077
  31 H :    0.018763
  32 H :    0.033588
  33 H :    0.026063
  34 H :    0.031236
  35 H :    0.026837
  36 H :    0.019390
  37 H :    0.024958
  38 H :    0.027069
Sum of atomic charges:    0.0000000

LOEWDIN ATOMIC CHARGES
----------------------
   0 C :   -0.107295
   1 C :   -0.041810
   2 C :   -0.045045
   3 C :   -0.063036
   4 C :   -0.056396
   5 C :   -0.069854
   6 C :   -0.077276
   7 C :   -0.026480
   8 C :   -0.081484
   9 C :   -0.074921
  10 C :   -0.070173
  11 C :   -0.056602
  12 C :   -0.074628
  13 C :   -0.108403
  14 C :   -0.106491
  15 H :    0.047616
  16 H :    0.049346
  17 H :    0.049199
  18 H :    0.032486
  19 H :    0.048793
  20 H :    0.055660
  21 H :    0.045055
  22 H :    0.049260
  23 H :    0.050654
  24 H :    0.044836
  25 H :    0.031842
  26 H :    0.027783
  27 H :    0.050872
  28 H :    0.049857
  29 H :    0.045861
  30 H :    0.041338
  31 H :    0.044473
  32 H :    0.040402
  33 H :    0.043166
  34 H :    0.042510
  35 H :    0.044335
  36 H :    0.038200
  37 H :    0.042233
  38 H :    0.044115

  Mayer bond orders larger than 0.100000
B(  0-C ,  1-C ) :   1.0345 B(  0-C , 15-H ) :   0.9793 B(  0-C , 16-H ) :   0.9787
B(  0-C , 17-H ) :   0.9903 B(  1-C ,  2-C ) :   1.8909 B(  1-C ,  6-C ) :   1.0184
B(  2-C ,  3-C ) :   1.0203 B(  2-C , 18-H ) :   0.9871 B(  3-C ,  4-C ) :   0.9809
B(  3-C , 11-C ) :   1.0065 B(  3-C , 19-H ) :   0.9838 B(  4-C ,  5-C ) :   1.0088
B(  4-C ,  7-C ) :   1.0193 B(  4-C , 20-H ) :   0.9849 B(  5-C ,  6-C ) :   0.9873
B(  5-C , 21-H ) :   0.9966 B(  5-C , 22-H ) :   0.9951 B(  6-C , 23-H ) :   0.9849
B(  6-C , 24-H ) :   0.9816 B(  7-C ,  8-C ) :   1.9504 B(  7-C ,  9-C ) :   1.0203
B(  8-C , 25-H ) :   0.9799 B(  8-C , 26-H ) :   0.9840 B(  9-C , 10-C ) :   0.9892
B(  9-C , 27-H ) :   0.9968 B(  9-C , 28-H ) :   0.9783 B( 10-C , 11-C ) :   0.9783
B( 10-C , 29-H ) :   0.9858 B( 10-C , 30-H ) :   0.9979 B( 11-C , 12-C ) :   0.9878
B( 11-C , 31-H ) :   0.9925 B( 12-C , 13-C ) :   1.0003 B( 12-C , 14-C ) :   1.0073
B( 12-C , 32-H ) :   0.9890 B( 13-C , 33-H ) :   0.9887 B( 13-C , 34-H ) :   0.9942
B( 13-C , 35-H ) :   0.9950 B( 14-C , 36-H ) :   0.9962 B( 14-C , 37-H ) :   0.9903
B( 14-C , 38-H ) :   0.9945

Dispersion correction           -0.053881403
FINAL SINGLE POINT ENERGY       -99.942695141994

DIPOLE MOMENT
-------------

Method             : SCF
Type of density    : Electron Density
Multiplicity       :   1
Irrep              :   0
Energy             :   -99.8888137393298052 Eh
Relativity type    :
Basis              : AO
                                X                 Y                 Z
Electronic contribution:      6.379238873       5.479764272       0.879607736
Nuclear contribution   :     -6.419609020      -5.599097380      -0.803023903
                        -----------------------------------------
Total Dipole Moment    :     -0.040370147      -0.119333108       0.076583833
                        -----------------------------------------
Magnitude (a.u.)       :      0.147428705
Magnitude (Debye)      :      0.374733988

VIBRATIONAL FREQUENCIES
-----------------------

Scaling factor for frequencies =  1.000000000  (already applied!)

     0:       0.00 cm**-1
     1:       0.00 cm**-1
     2:       0.00 cm**-1
     3:       0.00 cm**-1
     4:       0.00 cm**-1
     5:       0.00 cm**-1
     6:      61.81 cm**-1
     7:      75.80 cm**-1
     8:      77.28 cm**-1
     9:     123.84 cm**-1
    10:     148.00 cm**-1
    11:     184.63 cm**-1
    12:     203.90 cm**-1
    13:     212.41 cm**-1
    14:     226.56 cm**-1
    15:     272.42 cm**-1
    16:     281.57 cm**-1
    17:     318.94 cm**-1
    18:     336.83 cm**-1
    19:     341.73 cm**-1
    20:     358.41 cm**-1
    21:     397.89 cm**-1
    22:     414.13 cm**-1
    23:     436.18 cm**-1
    24:     444.05 cm**-1
    25:     474.07 cm**-1
    26:     480.58 cm**-1
    27:     520.48 cm**-1
    28:     579.65 cm**-1
    29:     628.17 cm**-1
    30:     655.58 cm**-1
    31:     723.38 cm**-1
    32:     742.50 cm**-1
    33:     810.10 cm**-1
    34:     835.11 cm**-1
    35:     855.62 cm**-1
    36:     868.96 cm**-1
    37:     901.91 cm**-1
    38:     912.84 cm**-1
    39:     932.15 cm**-1
    40:     939.21 cm**-1
    41:     951.89 cm**-1
    42:     974.91 cm**-1
    43:     991.28 cm**-1
    44:     996.03 cm**-1
    45:     999.45 cm**-1
    46:    1013.52 cm**-1
    47:    1039.62 cm**-1
    48:    1057.07 cm**-1
    49:    1071.57 cm**-1
    50:    1089.37 cm**-1
    51:    1108.01 cm**-1
    52:    1124.03 cm**-1
    53:    1139.54 cm**-1
    54:    1155.94 cm**-1
    55:    1164.13 cm**-1
    56:    1208.05 cm**-1
    57:    1212.47 cm**-1
    58:    1226.11 cm**-1
    59:    1242.21 cm**-1
    60:    1255.67 cm**-1
    61:    1258.42 cm**-1
    62:    1279.17 cm**-1
    63:    1314.56 cm**-1
    64:    1324.45 cm**-1
    65:    1340.34 cm**-1
    66:    1347.83 cm**-1
    67:    1354.94 cm**-1
    68:    1379.13 cm**-1
    69:    1392.10 cm**-1
    70:    1397.86 cm**-1
    71:    1409.75 cm**-1
    72:    1415.21 cm**-1
    73:    1432.84 cm**-1
    74:    1440.37 cm**-1
    75:    1441.21 cm**-1
    76:    1448.11 cm**-1
    77:    1452.82 cm**-1
    78:    1454.86 cm**-1
    79:    1466.21 cm**-1
    80:    1481.22 cm**-1
    81:    1505.52 cm**-1
    82:    1510.29 cm**-1
    83:    1510.64 cm**-1
    84:    1515.19 cm**-1
    85:    1521.67 cm**-1
    86:    1523.68 cm**-1
    87:    1528.27 cm**-1
    88:    1535.24 cm**-1
    89:    1536.07 cm**-1
    90:    1548.63 cm**-1
    91:    1772.36 cm**-1
    92:    1802.62 cm**-1
    93:    3040.13 cm**-1
    94:    3061.61 cm**-1
    95:    3078.79 cm**-1
    96:    3087.18 cm**-1
    97:    3088.71 cm**-1
    98:    3091.06 cm**-1
    99:    3093.06 cm**-1
   100:    3094.73 cm**-1
   101:    3097.45 cm**-1
   102:    3100.91 cm**-1
   103:    3107.11 cm**-1
   104:    3135.80 cm**-1
   105:    3158.23 cm**-1
   106:    3158.97 cm**-1
   107:    3169.40 cm**-1
   108:    3169.46 cm**-1
   109:    3174.65 cm**-1
   110:    3180.48 cm**-1
   111:    3198.55 cm**-1
   112:    3202.93 cm**-1
   113:    3205.58 cm**-1
   114:    3214.27 cm**-1
   115:    3221.65 cm**-1
   116:    3309.22 cm**-1

IR SPECTRUM
-----------

 Mode   freq       eps      Int      T**2         TX        TY        TZ
       cm**-1   L/(mol*cm) km/mol    a.u.
----------------------------------------------------------------------------
  6:     61.81   0.000003    0.02  0.000016  (-0.002147 -0.000320 -0.003342)
  7:     75.80   0.000012    0.06  0.000048  (-0.000525  0.004336 -0.005395)
  8:     77.28   0.000005    0.03  0.000020  ( 0.000495  0.001060 -0.004371)
  9:    123.84   0.000068    0.35  0.000173  ( 0.001583 -0.009579  0.008850)
 10:    148.00   0.000051    0.26  0.000108  ( 0.001948 -0.008147  0.006158)
 11:    184.63   0.000016    0.08  0.000026  ( 0.003058 -0.003992  0.001099)
 12:    203.90   0.000036    0.18  0.000055  ( 0.002229 -0.006016 -0.003665)
 13:    212.41   0.000003    0.01  0.000004  (-0.001707  0.000253 -0.001098)
 14:    226.56   0.000011    0.06  0.000015  ( 0.000916 -0.000276 -0.003788)
 15:    272.42   0.000184    0.93  0.000211  ( 0.004512 -0.013810  0.000022)
 16:    281.57   0.000127    0.64  0.000141  ( 0.000830 -0.011230  0.003749)
 17:    318.94   0.000059    0.30  0.000058  (-0.005073 -0.000815  0.005597)
 18:    336.83   0.000020    0.10  0.000018  ( 0.000412  0.000022  0.004266)
 19:    341.73   0.000172    0.87  0.000157  ( 0.009197 -0.004506 -0.007207)
 20:    358.41   0.000125    0.63  0.000109  (-0.008696  0.004617  0.003402)
 21:    397.89   0.000278    1.40  0.000218  (-0.000037  0.003168  0.014410)
 22:    414.13   0.000004    0.02  0.000003  (-0.000183  0.000790  0.001480)
 23:    436.18   0.000482    2.44  0.000345  ( 0.001172 -0.015207  0.010608)
 24:    444.05   0.000384    1.94  0.000270  ( 0.004495 -0.013974  0.007363)
 25:    474.07   0.000116    0.59  0.000076  (-0.004965 -0.001531 -0.007035)
 26:    480.58   0.000227    1.15  0.000148  (-0.002449  0.011776  0.001694)
 27:    520.48   0.000012    0.06  0.000007  (-0.001108 -0.002410 -0.000355)
 28:    579.65   0.000080    0.40  0.000043  (-0.001097 -0.005972 -0.002493)
 29:    628.17   0.000626    3.16  0.000311  (-0.001961 -0.016116 -0.006872)
 30:    655.58   0.000021    0.10  0.000010  (-0.001598  0.000436 -0.002657)
 31:    723.38   0.000399    2.01  0.000172  (-0.005916 -0.001553 -0.011599)
 32:    742.50   0.000158    0.80  0.000066  (-0.003768 -0.004532  0.005614)
 33:    810.10   0.000090    0.46  0.000035  (-0.003222 -0.004733  0.001432)
 34:    835.11   0.001177    5.95  0.000440  (-0.005700  0.013531 -0.014975)
 35:    855.62   0.000074    0.37  0.000027  (-0.002535  0.003152 -0.003270)
 36:    868.96   0.001329    6.72  0.000477  (-0.014134 -0.015483  0.006155)
 37:    901.91   0.000102    0.52  0.000035  ( 0.000244 -0.004958 -0.003269)
 38:    912.84   0.000892    4.51  0.000305  (-0.007576  0.015422  0.003128)
 39:    932.15   0.000429    2.17  0.000144  ( 0.000619 -0.004081 -0.011253)
 40:    939.21   0.007872   39.78  0.002615  (-0.004267  0.034300  0.037693)
 41:    951.89   0.000448    2.27  0.000147  (-0.009017  0.005734 -0.005724)
 42:    974.91   0.000436    2.21  0.000140  ( 0.009504 -0.006899  0.001323)
 43:    991.28   0.000313    1.58  0.000098  ( 0.004329  0.000903 -0.008883)
 44:    996.03   0.000675    3.41  0.000212  ( 0.012539  0.006113 -0.004120)
 45:    999.45   0.001643    8.30  0.000513  ( 0.013659  0.017357 -0.005013)
 46:   1013.52   0.000074    0.37  0.000023  (-0.001933 -0.000565 -0.004315)
 47:   1039.62   0.000496    2.51  0.000149  ( 0.000395  0.011520 -0.003990)
 48:   1057.07   0.000130    0.66  0.000038  ( 0.002488  0.004303 -0.003690)
 49:   1071.57   0.000270    1.37  0.000079  (-0.004554  0.000811 -0.007571)
 50:   1089.37   0.000113    0.57  0.000032  ( 0.002884  0.002885 -0.003978)
 51:   1108.01   0.000193    0.97  0.000054  (-0.001886  0.007121 -0.000005)
 52:   1124.03   0.001118    5.65  0.000310  ( 0.016486 -0.006027 -0.001534)
 53:   1139.54   0.000149    0.75  0.000041  ( 0.002959  0.004290  0.003700)
 54:   1155.94   0.001103    5.57  0.000298  ( 0.015799 -0.006232 -0.003056)
 55:   1164.13   0.000062    0.31  0.000017  ( 0.001924 -0.003118 -0.001766)
 56:   1208.05   0.000775    3.92  0.000200  (-0.010081 -0.009933 -0.000065)
 57:   1212.47   0.001156    5.84  0.000297  ( 0.016441 -0.004991  0.001499)
 58:   1226.11   0.000396    2.00  0.000101  ( 0.005972  0.008031  0.000864)
 59:   1242.21   0.001653    8.36  0.000415  (-0.014531 -0.014188 -0.001705)
 60:   1255.67   0.000268    1.35  0.000066  ( 0.005488 -0.004170  0.004358)
 61:   1258.42   0.000241    1.22  0.000060  (-0.004054 -0.004037  0.005210)
 62:   1279.17   0.000143    0.72  0.000035  (-0.005560 -0.001919 -0.000532)
 63:   1314.56   0.000143    0.72  0.000034  (-0.000781  0.004581  0.003524)
 64:   1324.45   0.000264    1.33  0.000062  (-0.006676 -0.002216 -0.003567)
 65:   1340.34   0.000960    4.85  0.000224  ( 0.009688  0.011371  0.000660)
 66:   1347.83   0.000508    2.57  0.000118  ( 0.005475  0.006573  0.006671)
 67:   1354.94   0.000691    3.49  0.000159  ( 0.010492 -0.006071  0.003506)
 68:   1379.13   0.000320    1.62  0.000072  ( 0.007979  0.002508 -0.001564)
 69:   1392.10   0.000412    2.08  0.000092  (-0.008916 -0.003186  0.001667)
 70:   1397.86   0.000056    0.28  0.000013  ( 0.001337  0.002019  0.002584)
 71:   1409.75   0.000128    0.65  0.000028  (-0.003623 -0.001983  0.003369)
 72:   1415.21   0.000093    0.47  0.000020  (-0.001202  0.004284  0.000830)
 73:   1432.84   0.000748    3.78  0.000163  (-0.009077  0.006538 -0.006139)
 74:   1440.37   0.000421    2.13  0.000091  ( 0.003016 -0.008908  0.001686)
 75:   1441.21   0.001179    5.96  0.000255  (-0.009121  0.010347 -0.008066)
 76:   1448.11   0.000507    2.56  0.000109  (-0.002408 -0.002179 -0.009931)
 77:   1452.82   0.000671    3.39  0.000144  ( 0.008538  0.004472 -0.007155)
 78:   1454.86   0.002319   11.72  0.000497  (-0.016014 -0.006950  0.013878)
 79:   1466.21   0.001592    8.05  0.000339  (-0.002380  0.013244  0.012563)
 80:   1481.22   0.001229    6.21  0.000259  ( 0.006428  0.006547 -0.013219)
 81:   1505.52   0.001314    6.64  0.000272  (-0.008663 -0.005991  0.012708)
 82:   1510.29   0.000959    4.85  0.000198  (-0.003618  0.006035 -0.012196)
 83:   1510.64   0.002915   14.73  0.000602  ( 0.004415 -0.024136 -0.000257)
 84:   1515.19   0.000830    4.19  0.000171  ( 0.006082 -0.011406  0.001959)
 85:   1521.67   0.000551    2.78  0.000113  ( 0.005643 -0.006558  0.006169)
 86:   1523.68   0.002642   13.35  0.000541  (-0.022303 -0.006589 -0.000592)
 87:   1528.27   0.001385    7.00  0.000283  ( 0.010360 -0.007396  0.010991)
 88:   1535.24   0.002282   11.53  0.000464  (-0.020566 -0.006240 -0.001369)
 89:   1536.07   0.001736    8.78  0.000353  (-0.008271  0.001501 -0.016796)
 90:   1548.63   0.004133   20.89  0.000833  ( 0.008581  0.019534  0.019434)
 91:   1772.36   0.005834   29.48  0.001027  ( 0.023081  0.020251 -0.009183)
 92:   1802.62   0.001790    9.05  0.000310  (-0.016953  0.000128  0.004735)
 93:   3040.13   0.003736   18.88  0.000384  (-0.009323  0.008743  0.014838)
 94:   3061.61   0.003262   16.49  0.000333  (-0.011398  0.008056  0.011735)
 95:   3078.79   0.005978   30.21  0.000606  ( 0.014817 -0.018401 -0.006913)
 96:   3087.18   0.001244    6.29  0.000126  ( 0.005394 -0.005957 -0.007822)
 97:   3088.71   0.002118   10.70  0.000214  (-0.005671  0.003508  0.013020)
 98:   3091.06   0.000793    4.01  0.000080  ( 0.008052  0.001506  0.003600)
 99:   3093.06   0.006689   33.80  0.000675  (-0.010730  0.021537 -0.009792)
100:   3094.73   0.017529   88.58  0.001768  (-0.029566  0.006499  0.029175)
101:   3097.45   0.010795   54.55  0.001088  (-0.025191 -0.005242  0.020628)
102:   3100.91   0.005299   26.78  0.000533  ( 0.013844  0.009060  0.016110)
103:   3107.11   0.009710   49.07  0.000975  ( 0.017234 -0.002458  0.025926)
104:   3135.80   0.003179   16.06  0.000316  (-0.007786  0.006716 -0.014513)
105:   3158.23   0.002586   13.07  0.000255  ( 0.009669  0.011730  0.004939)
106:   3158.97   0.007332   37.05  0.000724  (-0.001660 -0.021684  0.015855)
107:   3169.40   0.003718   18.79  0.000366  ( 0.012399 -0.013622  0.005175)
108:   3169.46   0.005182   26.19  0.000510  (-0.020341  0.000437  0.009810)
109:   3174.65   0.001001    5.06  0.000098  (-0.001367 -0.008727 -0.004511)
110:   3180.48   0.008492   42.92  0.000833  (-0.011324 -0.018756 -0.018794)
111:   3198.55   0.004044   20.43  0.000395  (-0.019630  0.002300  0.001968)
112:   3202.93   0.002143   10.83  0.000209  (-0.011686 -0.006116 -0.005900)
113:   3205.58   0.004360   22.04  0.000424  (-0.003289  0.015418 -0.013266)
114:   3214.27   0.002271   11.47  0.000220  ( 0.006905  0.012610 -0.003710)
115:   3221.65   0.003677   18.58  0.000356  ( 0.007068  0.013805  0.010751)
116:   3309.22   0.001315    6.64  0.000124  ( 0.008077 -0.005184  0.005645)

--------------------------
THERMOCHEMISTRY AT 298.15K
--------------------------

Temperature         ...   298.15 K
Pressure            ...     1.00 atm
Total Mass          ...   204.36 AMU
Quasi RRHO          ...     True
Cut-Off Frequency   ...     1.00 cm^-1

Throughout the following assumptions are being made:
  (1) The electronic state is orbitally nondegenerate
  (2) There are no thermally accessible electronically excited states
  (3) Hindered rotations indicated by low frequency modes are not
      treated as such but are treated as vibrations and this may
      cause some error
  (4) All equations used are the standard statistical mechanics
      equations for an ideal gas
  (5) All vibrations are strictly harmonic

freq.      61.81  E(vib)   ...       0.51
freq.      75.80  E(vib)   ...       0.49
freq.      77.28  E(vib)   ...       0.49
freq.     123.84  E(vib)   ...       0.43
freq.     148.00  E(vib)   ...       0.41
freq.     184.63  E(vib)   ...       0.37
freq.     203.90  E(vib)   ...       0.35
freq.     212.41  E(vib)   ...       0.34
freq.     226.56  E(vib)   ...       0.33
freq.     272.42  E(vib)   ...       0.29
freq.     281.57  E(vib)   ...       0.28
freq.     318.94  E(vib)   ...       0.25
freq.     336.83  E(vib)   ...       0.24
freq.     341.73  E(vib)   ...       0.23
freq.     358.41  E(vib)   ...       0.22
freq.     397.89  E(vib)   ...       0.20
freq.     414.13  E(vib)   ...       0.19
freq.     436.18  E(vib)   ...       0.17
freq.     444.05  E(vib)   ...       0.17
freq.     474.07  E(vib)   ...       0.15
freq.     480.58  E(vib)   ...       0.15
freq.     520.48  E(vib)   ...       0.13
freq.     579.65  E(vib)   ...       0.11
freq.     628.17  E(vib)   ...       0.09
freq.     655.58  E(vib)   ...       0.08
freq.     723.38  E(vib)   ...       0.07
freq.     742.50  E(vib)   ...       0.06
freq.     810.10  E(vib)   ...       0.05
freq.     835.11  E(vib)   ...       0.04
freq.     855.62  E(vib)   ...       0.04
freq.     868.96  E(vib)   ...       0.04
freq.     901.91  E(vib)   ...       0.03
freq.     912.84  E(vib)   ...       0.03
freq.     932.15  E(vib)   ...       0.03
freq.     939.21  E(vib)   ...       0.03
freq.     951.89  E(vib)   ...       0.03
freq.     974.91  E(vib)   ...       0.03
freq.     991.28  E(vib)   ...       0.02
freq.     996.03  E(vib)   ...       0.02
freq.     999.45  E(vib)   ...       0.02
freq.    1013.52  E(vib)   ...       0.02
freq.    1039.62  E(vib)   ...       0.02
freq.    1057.07  E(vib)   ...       0.02
freq.    1071.57  E(vib)   ...       0.02
freq.    1089.37  E(vib)   ...       0.02
freq.    1108.01  E(vib)   ...       0.02
freq.    1124.03  E(vib)   ...       0.01
freq.    1139.54  E(vib)   ...       0.01
freq.    1155.94  E(vib)   ...       0.01
freq.    1164.13  E(vib)   ...       0.01
freq.    1208.05  E(vib)   ...       0.01
freq.    1212.47  E(vib)   ...       0.01
freq.    1226.11  E(vib)   ...       0.01
freq.    1242.21  E(vib)   ...       0.01
freq.    1255.67  E(vib)   ...       0.01
freq.    1258.42  E(vib)   ...       0.01
freq.    1279.17  E(vib)   ...       0.01
freq.    1314.56  E(vib)   ...       0.01
freq.    1324.45  E(vib)   ...       0.01
freq.    1340.34  E(vib)   ...       0.01
freq.    1347.83  E(vib)   ...       0.01
freq.    1354.94  E(vib)   ...       0.01
freq.    1379.13  E(vib)   ...       0.01
freq.    1392.10  E(vib)   ...       0.00
freq.    1397.86  E(vib)   ...       0.00
freq.    1409.75  E(vib)   ...       0.00
freq.    1415.21  E(vib)   ...       0.00
freq.    1432.84  E(vib)   ...       0.00
freq.    1440.37  E(vib)   ...       0.00
freq.    1441.21  E(vib)   ...       0.00
freq.    1448.11  E(vib)   ...       0.00
freq.    1452.82  E(vib)   ...       0.00
freq.    1454.86  E(vib)   ...       0.00
freq.    1466.21  E(vib)   ...       0.00
freq.    1481.22  E(vib)   ...       0.00
freq.    1505.52  E(vib)   ...       0.00
freq.    1510.29  E(vib)   ...       0.00
freq.    1510.64  E(vib)   ...       0.00
freq.    1515.19  E(vib)   ...       0.00
freq.    1521.67  E(vib)   ...       0.00
freq.    1523.68  E(vib)   ...       0.00
freq.    1528.27  E(vib)   ...       0.00
freq.    1535.24  E(vib)   ...       0.00
freq.    1536.07  E(vib)   ...       0.00
freq.    1548.63  E(vib)   ...       0.00
freq.    1772.36  E(vib)   ...       0.00
freq.    1802.62  E(vib)   ...       0.00
freq.    3040.13  E(vib)   ...       0.00
freq.    3061.61  E(vib)   ...       0.00
freq.    3078.79  E(vib)   ...       0.00
freq.    3087.18  E(vib)   ...       0.00
freq.    3088.71  E(vib)   ...       0.00
freq.    3091.06  E(vib)   ...       0.00
freq.    3093.06  E(vib)   ...       0.00
freq.    3094.73  E(vib)   ...       0.00
freq.    3097.45  E(vib)   ...       0.00
freq.    3100.91  E(vib)   ...       0.00
freq.    3107.11  E(vib)   ...       0.00
freq.    3135.80  E(vib)   ...       0.00
freq.    3158.23  E(vib)   ...       0.00
freq.    3158.97  E(vib)   ...       0.00
freq.    3169.40  E(vib)   ...       0.00
freq.    3169.46  E(vib)   ...       0.00
freq.    3174.65  E(vib)   ...       0.00
freq.    3180.48  E(vib)   ...       0.00
freq.    3198.55  E(vib)   ...       0.00
freq.    3202.93  E(vib)   ...       0.00
freq.    3205.58  E(vib)   ...       0.00
freq.    3214.27  E(vib)   ...       0.00
freq.    3221.65  E(vib)   ...       0.00
freq.    3309.22  E(vib)   ...       0.00

------------
INNER ENERGY
------------

The inner energy is: U= E(el) + E(ZPE) + E(vib) + E(rot) + E(trans)
    E(el)   - is the total energy from the electronic structure calculation
              = E(kin-el) + E(nuc-el) + E(el-el) + E(nuc-nuc)
    E(ZPE)  - the the zero temperature vibrational energy from the frequency calculation
    E(vib)  - the the finite temperature correction to E(ZPE) due to population
              of excited vibrational states
    E(rot)  - is the rotational thermal energy
    E(trans)- is the translational thermal energy

Summary of contributions to the inner energy U:
Electronic energy                ...    -99.94269514 Eh
Zero point energy                ...      0.36650954 Eh     229.99 kcal/mol
Thermal vibrational correction   ...      0.01200339 Eh       7.53 kcal/mol
Thermal rotational correction    ...      0.00141627 Eh       0.89 kcal/mol
Thermal translational correction ...      0.00141627 Eh       0.89 kcal/mol
-----------------------------------------------------------------------
Total thermal energy                    -99.56134966 Eh

Summary of corrections to the electronic energy:
(perhaps to be used in another calculation)
Total thermal correction                  0.01483593 Eh       9.31 kcal/mol
Non-thermal (ZPE) correction              0.36650954 Eh     229.99 kcal/mol
-----------------------------------------------------------------------
Total correction                          0.38134548 Eh     239.30 kcal/mol

Rotational constants in cm-1:     0.027830     0.016215     0.012521

                             ****ORCA TERMINATED NORMALLY****
TOTAL RUN TIME: 0 days 1 hours 9 minutes 13 seconds 328 msec
