                         Program Version 6.0.1  -  RELEASE   -
|  1> ! wB97X-3c OPT FREQ TightSCF
|  2> %pal
|  3>   nprocs 40
|  4> end
|  5> * xyz 0 1
|  6> C     -3.065416    -2.067613     0.410300
|  7> C     -1.710586    -1.471266    -0.019635
|  8> C     -0.585632    -2.408929     0.468683
|  9> C      0.752599    -2.115832    -0.213507
| 10> C      1.594498    -1.128050     0.609588
| 11> C      1.056220     0.294200     0.812978
| 12> C      2.276992     0.055100    -0.097041
| 13> C      2.158992     0.156157    -1.630607
| 14> C      3.630585     0.450681     0.502220
| 15> C     -0.267844     0.674922     0.182518
| 16> C     -0.493334     1.918114    -0.260775
| 17> C     -1.938909     2.225800    -0.408838
| 18> C     -2.641614     0.916413    -0.078640
| 19> C     -1.566461    -0.017675     0.517403
| 20> C      0.555384     2.989101    -0.402149
| 21> H     -3.141156    -2.104792     1.518399
| 22> H     -3.912713    -1.470259     0.015553
| 23> H     -3.180170    -3.097822     0.010457
| 24> H     -1.698658    -1.450672    -1.132822
| 25> H     -0.490375    -2.362469     1.576726
| 26> H     -0.857236    -3.457545     0.213244
| 27> H      0.583997    -1.814062    -1.264210
| 28> H      1.335150    -3.060804    -0.264156
| 29> H      2.105306    -1.529619     1.511917
| 30> H      1.272088     0.714359     1.818901
| 31> H      2.628885    -0.735388    -2.096260
| 32> H      2.709545     1.050170    -1.989830
| 33> H      1.113458     0.243460    -1.987524
| 34> H      4.430660    -0.176709     0.056466
| 35> H      3.656211     0.322610     1.605928
| 36> H      3.838661     1.516311     0.270904
| 37> H     -2.230292     3.015685     0.317080
| 38> H     -2.163015     2.558697    -1.445373
| 39> H     -3.469205     1.081469     0.645633
| 40> H     -3.069234     0.502802    -1.019033
| 41> H     -1.670624    -0.021503     1.626099
| 42> H      0.077594     3.970547    -0.605500
| 43> H      1.229128     2.756456    -1.248663
| 44> H      1.146522     3.077956     0.533336
| 45> *
| 46>
| 47>                          ****END OF INPUT****
 Total Charge           Charge          ....    0
 Multiplicity           Mult            ....    1
 Number of Electrons    NEL             ....   84
Dispersion correction           -0.052672033
FINAL SINGLE POINT ENERGY       -99.912035799309
Dispersion correction             ... done (  0.1 sec)
Dispersion correction           -0.053204335
FINAL SINGLE POINT ENERGY       -99.928136474434
Dispersion correction             ... done (  0.1 sec)
Dispersion correction           -0.053293671
FINAL SINGLE POINT ENERGY       -99.931623144521
Dispersion correction             ... done (  0.1 sec)
FINAL SINGLE POINT ENERGY       -99.932371788329
FINAL SINGLE POINT ENERGY       -99.932657178942
FINAL SINGLE POINT ENERGY       -99.933003070176
FINAL SINGLE POINT ENERGY       -99.933591219170
FINAL SINGLE POINT ENERGY       -99.934108780482
FINAL SINGLE POINT ENERGY       -99.934581917905
FINAL SINGLE POINT ENERGY       -99.934816463811
FINAL SINGLE POINT ENERGY       -99.934883271439
FINAL SINGLE POINT ENERGY       -99.934907928024
FINAL SINGLE POINT ENERGY       -99.934916340600
Dispersion correction             ... done (  0.1 sec)
Dispersion correction           -0.053080518
FINAL SINGLE POINT ENERGY       -99.934920632338
Dispersion correction             ... done (  0.1 sec)
Dispersion correction           -0.053083418
FINAL SINGLE POINT ENERGY       -99.934923170906
Dispersion correction             ... done (  0.1 sec)
                    ***********************HURRAY********************

CARTESIAN COORDINATES (ANGSTROEM)
---------------------------------
  C     -3.048289   -2.018573    0.396394
  C     -1.682047   -1.463700    0.015101
  C     -0.597998   -2.422299    0.494295
  C      0.773924   -2.176106   -0.114647
  C      1.567228   -1.126288    0.612710
  C      1.052190    0.269502    0.785660
  C      2.263557    0.009478   -0.071343
  C      2.166954    0.153658   -1.566608
  C      3.599486    0.427077    0.484508
  C     -0.261580    0.727456    0.265814
  C     -0.477875    1.947812   -0.222150
  C     -1.936496    2.237535   -0.391625
  C     -2.607831    0.887307   -0.160632
  C     -1.558702   -0.018458    0.511020
  C      0.530726    3.013132   -0.467953
  H     -3.150325   -2.070454    1.482318
  H     -3.862784   -1.404640    0.016741
  H     -3.183221   -3.026046    0.003539
  H     -1.622896   -1.433968   -1.079601
  H     -0.533469   -2.395248    1.586576
  H     -0.919719   -3.433961    0.237063
  H      0.650098   -1.916691   -1.166267
  H      1.350195   -3.103073   -0.106032
  H      2.086388   -1.515423    1.482044
  H      1.283381    0.710027    1.751410
  H      2.804772   -0.577881   -2.065791
  H      2.501502    1.145091   -1.873190
  H      1.151463    0.030613   -1.932387
  H      4.404700   -0.163255    0.043689
  H      3.640524    0.291747    1.564648
  H      3.804500    1.477890    0.271456
  H     -2.246077    2.981574    0.348773
  H     -2.171892    2.663898   -1.369026
  H     -3.523055    0.971398    0.422152
  H     -2.883011    0.450582   -1.122015
  H     -1.721459   -0.043718    1.597612
  H      0.279861    3.910905    0.100706
  H      0.545011    3.301855   -1.520465
  H      1.532269    2.701244   -0.184727

 Multiplicity           Mult            ....    1
 Number of Electrons    NEL             ....   84
 Basis Dimension        Dim             ....  315

ORBITAL ENERGIES
----------------

  NO   OCC          E(Eh)            E(eV)
   0   2.0000      -1.024527       -27.8788
   1   2.0000      -0.987135       -26.8613
   2   2.0000      -0.944842       -25.7105
   3   2.0000      -0.889171       -24.1956
   4   2.0000      -0.870081       -23.6761
   5   2.0000      -0.863389       -23.4940
   6   2.0000      -0.831766       -22.6335
   7   2.0000      -0.819498       -22.2997
   8   2.0000      -0.790926       -21.5222
   9   2.0000      -0.765670       -20.8349
  10   2.0000      -0.726906       -19.7801
  11   2.0000      -0.686852       -18.6902
  12   2.0000      -0.679924       -18.5017
  13   2.0000      -0.652188       -17.7469
  14   2.0000      -0.613211       -16.6863
  15   2.0000      -0.599604       -16.3161
  16   2.0000      -0.589441       -16.0395
  17   2.0000      -0.580386       -15.7931
  18   2.0000      -0.555879       -15.1262
  19   2.0000      -0.552425       -15.0322
  20   2.0000      -0.541111       -14.7244
  21   2.0000      -0.533467       -14.5164
  22   2.0000      -0.528567       -14.3830
  23   2.0000      -0.512446       -13.9444
  24   2.0000      -0.509436       -13.8625
  25   2.0000      -0.500267       -13.6130
  26   2.0000      -0.491330       -13.3698
  27   2.0000      -0.486608       -13.2413
  28   2.0000      -0.483907       -13.1678
  29   2.0000      -0.468402       -12.7459
  30   2.0000      -0.464888       -12.6502
  31   2.0000      -0.457592       -12.4517
  32   2.0000      -0.444127       -12.0853
  33   2.0000      -0.438162       -11.9230
  34   2.0000      -0.432968       -11.7817
  35   2.0000      -0.428944       -11.6722
  36   2.0000      -0.420215       -11.4346
  37   2.0000      -0.415778       -11.3139
  38   2.0000      -0.406822       -11.0702
  39   2.0000      -0.367877       -10.0104
  40   2.0000      -0.356903        -9.7118
  41   2.0000      -0.310088        -8.4379
  42   0.0000       0.083365         2.2685
  43   0.0000       0.091239         2.4827
  44   0.0000       0.095796         2.6067
  45   0.0000       0.098602         2.6831
  46   0.0000       0.103383         2.8132

MULLIKEN ATOMIC CHARGES
-----------------------
   0 C :   -0.035261
   1 C :   -0.076546
   2 C :   -0.025882
   3 C :   -0.031650
   4 C :   -0.013931
   5 C :   -0.079934
   6 C :   -0.105484
   7 C :   -0.006493
   8 C :   -0.019777
   9 C :   -0.055825
  10 C :   -0.026312
  11 C :   -0.035585
  12 C :   -0.033565
  13 C :   -0.070442
  14 C :   -0.043436
  15 H :    0.024906
  16 H :    0.021279
  17 H :    0.025578
  18 H :    0.023162
  19 H :    0.023039
  20 H :    0.024406
  21 H :    0.013767
  22 H :    0.033269
  23 H :    0.022589
  24 H :    0.040104
  25 H :    0.032790
  26 H :    0.019387
  27 H :    0.032268
  28 H :    0.028484
  29 H :    0.022200
  30 H :    0.018651
  31 H :    0.032141
  32 H :    0.030280
  33 H :    0.036627
  34 H :    0.027285
  35 H :    0.033285
  36 H :    0.035175
  37 H :    0.040461
  38 H :    0.018989
Sum of atomic charges:    0.0000000

LOEWDIN ATOMIC CHARGES
----------------------
   0 C :   -0.106210
   1 C :   -0.073327
   2 C :   -0.074705
   3 C :   -0.076176
   4 C :   -0.048570
   5 C :   -0.051970
   6 C :   -0.068728
   7 C :   -0.100644
   8 C :   -0.103731
   9 C :   -0.029226
  10 C :   -0.035334
  11 C :   -0.074654
  12 C :   -0.060499
  13 C :   -0.050036
  14 C :   -0.105869
  15 H :    0.042660
  16 H :    0.041762
  17 H :    0.042629
  18 H :    0.040604
  19 H :    0.043335
  20 H :    0.045419
  21 H :    0.042328
  22 H :    0.048032
  23 H :    0.042620
  24 H :    0.046397
  25 H :    0.045722
  26 H :    0.045101
  27 H :    0.042256
  28 H :    0.046281
  29 H :    0.045731
  30 H :    0.041749
  31 H :    0.043856
  32 H :    0.042590
  33 H :    0.038302
  34 H :    0.042150
  35 H :    0.042630
  36 H :    0.049983
  37 H :    0.049351
  38 H :    0.048191

  Mayer bond orders larger than 0.100000
B(  0-C ,  1-C ) :   1.0099 B(  0-C , 15-H ) :   0.9884 B(  0-C , 16-H ) :   0.9932
B(  0-C , 17-H ) :   0.9960 B(  1-C ,  2-C ) :   0.9870 B(  1-C , 13-C ) :   0.9679
B(  1-C , 18-H ) :   0.9918 B(  2-C ,  3-C ) :   0.9935 B(  2-C , 19-H ) :   0.9899
B(  2-C , 20-H ) :   1.0002 B(  3-C ,  4-C ) :   1.0000 B(  3-C , 21-H ) :   0.9917
B(  3-C , 22-H ) :   0.9957 B(  4-C ,  5-C ) :   0.9481 B(  4-C ,  6-C ) :   0.9414
B(  4-C , 23-H ) :   1.0026 B(  5-C ,  6-C ) :   0.9246 B(  5-C ,  9-C ) :   1.0766
B(  5-C , 24-H ) :   0.9867 B(  6-C ,  7-C ) :   1.0155 B(  6-C ,  8-C ) :   1.0270
B(  7-C , 25-H ) :   0.9862 B(  7-C , 26-H ) :   0.9861 B(  7-C , 27-H ) :   0.9841
B(  8-C , 28-H ) :   0.9886 B(  8-C , 29-H ) :   0.9881 B(  8-C , 30-H ) :   0.9869
B(  9-C , 10-C ) :   1.8706 B(  9-C , 13-C ) :   1.0213 B( 10-C , 11-C ) :   1.0074
B( 10-C , 14-C ) :   1.0370 B( 11-C , 12-C ) :   0.9973 B( 11-C , 31-H ) :   0.9826
B( 11-C , 32-H ) :   0.9911 B( 12-C , 13-C ) :   0.9840 B( 12-C , 33-H ) :   0.9992
B( 12-C , 34-H ) :   0.9945 B( 13-C , 35-H ) :   0.9790 B( 14-C , 36-H ) :   0.9760
B( 14-C , 37-H ) :   0.9755 B( 14-C , 38-H ) :   0.9890

Dispersion correction           -0.053085699
FINAL SINGLE POINT ENERGY       -99.934924563001

DIPOLE MOMENT
-------------

Method             : SCF
Type of density    : Electron Density
Multiplicity       :   1
Irrep              :   0
Energy             :   -99.8818388636722005 Eh
Relativity type    :
Basis              : AO
                                X                 Y                 Z
Electronic contribution:     -0.580290635       1.353541143       2.690012915
Nuclear contribution   :      0.623723131      -1.287799393      -2.682358284
                        -----------------------------------------
Total Dipole Moment    :      0.043432496       0.065741750       0.007654632
                        -----------------------------------------
Magnitude (a.u.)       :      0.079164088
Magnitude (Debye)      :      0.201219121

VIBRATIONAL FREQUENCIES
-----------------------

Scaling factor for frequencies =  1.000000000  (already applied!)

     0:       0.00 cm**-1
     1:       0.00 cm**-1
     2:       0.00 cm**-1
     3:       0.00 cm**-1
     4:       0.00 cm**-1
     5:       0.00 cm**-1
     6:      44.12 cm**-1
     7:      87.68 cm**-1
     8:     114.41 cm**-1
     9:     152.41 cm**-1
    10:     169.77 cm**-1
    11:     184.37 cm**-1
    12:     191.48 cm**-1
    13:     209.76 cm**-1
    14:     220.04 cm**-1
    15:     230.46 cm**-1
    16:     268.03 cm**-1
    17:     272.12 cm**-1
    18:     288.23 cm**-1
    19:     315.95 cm**-1
    20:     328.04 cm**-1
    21:     348.30 cm**-1
    22:     375.51 cm**-1
    23:     398.30 cm**-1
    24:     433.88 cm**-1
    25:     448.87 cm**-1
    26:     475.54 cm**-1
    27:     544.95 cm**-1
    28:     565.85 cm**-1
    29:     585.35 cm**-1
    30:     645.79 cm**-1
    31:     670.61 cm**-1
    32:     753.80 cm**-1
    33:     794.53 cm**-1
    34:     807.65 cm**-1
    35:     873.91 cm**-1
    36:     881.40 cm**-1
    37:     926.18 cm**-1
    38:     938.40 cm**-1
    39:     948.06 cm**-1
    40:     969.33 cm**-1
    41:     989.78 cm**-1
    42:     994.20 cm**-1
    43:    1007.64 cm**-1
    44:    1018.52 cm**-1
    45:    1035.47 cm**-1
    46:    1041.54 cm**-1
    47:    1048.44 cm**-1
    48:    1065.14 cm**-1
    49:    1091.51 cm**-1
    50:    1094.32 cm**-1
    51:    1122.35 cm**-1
    52:    1123.72 cm**-1
    53:    1139.30 cm**-1
    54:    1164.96 cm**-1
    55:    1178.58 cm**-1
    56:    1194.63 cm**-1
    57:    1210.95 cm**-1
    58:    1217.60 cm**-1
    59:    1248.96 cm**-1
    60:    1262.85 cm**-1
    61:    1265.93 cm**-1
    62:    1282.14 cm**-1
    63:    1306.08 cm**-1
    64:    1312.19 cm**-1
    65:    1336.70 cm**-1
    66:    1353.81 cm**-1
    67:    1367.90 cm**-1
    68:    1368.75 cm**-1
    69:    1383.02 cm**-1
    70:    1387.28 cm**-1
    71:    1406.89 cm**-1
    72:    1432.04 cm**-1
    73:    1438.01 cm**-1
    74:    1443.63 cm**-1
    75:    1443.99 cm**-1
    76:    1449.29 cm**-1
    77:    1456.66 cm**-1
    78:    1461.28 cm**-1
    79:    1506.96 cm**-1
    80:    1510.69 cm**-1
    81:    1511.43 cm**-1
    82:    1513.03 cm**-1
    83:    1514.36 cm**-1
    84:    1519.08 cm**-1
    85:    1522.27 cm**-1
    86:    1526.27 cm**-1
    87:    1529.35 cm**-1
    88:    1532.79 cm**-1
    89:    1538.13 cm**-1
    90:    1539.46 cm**-1
    91:    1561.62 cm**-1
    92:    1788.97 cm**-1
    93:    3031.74 cm**-1
    94:    3060.04 cm**-1
    95:    3079.52 cm**-1
    96:    3081.54 cm**-1
    97:    3086.43 cm**-1
    98:    3092.15 cm**-1
    99:    3095.02 cm**-1
   100:    3096.15 cm**-1
   101:    3105.94 cm**-1
   102:    3112.38 cm**-1
   103:    3132.63 cm**-1
   104:    3133.22 cm**-1
   105:    3158.17 cm**-1
   106:    3161.39 cm**-1
   107:    3166.86 cm**-1
   108:    3168.13 cm**-1
   109:    3172.73 cm**-1
   110:    3178.45 cm**-1
   111:    3178.91 cm**-1
   112:    3187.33 cm**-1
   113:    3193.11 cm**-1
   114:    3198.33 cm**-1
   115:    3214.78 cm**-1
   116:    3218.07 cm**-1

IR SPECTRUM
-----------

 Mode   freq       eps      Int      T**2         TX        TY        TZ
       cm**-1   L/(mol*cm) km/mol    a.u.
----------------------------------------------------------------------------
  6:     44.12   0.000003    0.01  0.000020  ( 0.002320 -0.001894  0.003310)
  7:     87.68   0.000010    0.05  0.000037  ( 0.002847 -0.001539 -0.005125)
  8:    114.41   0.000056    0.28  0.000152  (-0.000465  0.003191  0.011908)
  9:    152.41   0.000012    0.06  0.000024  ( 0.000745  0.001778 -0.004497)
 10:    169.77   0.000023    0.12  0.000043  (-0.000859 -0.001489 -0.006314)
 11:    184.37   0.000025    0.13  0.000042  ( 0.001606 -0.001866 -0.006022)
 12:    191.48   0.000009    0.05  0.000015  (-0.001527  0.000033  0.003537)
 13:    209.76   0.000005    0.03  0.000008  (-0.001594  0.000015 -0.002229)
 14:    220.04   0.000008    0.04  0.000012  ( 0.002076 -0.002485  0.001199)
 15:    230.46   0.000003    0.02  0.000004  ( 0.001004 -0.000585 -0.001690)
 16:    268.03   0.000075    0.38  0.000087  (-0.000959 -0.000283  0.009298)
 17:    272.12   0.000087    0.44  0.000100  (-0.000986 -0.001150  0.009901)
 18:    288.23   0.000228    1.15  0.000247  (-0.007576  0.010183  0.009274)
 19:    315.95   0.000233    1.18  0.000230  (-0.003379  0.011954  0.008699)
 20:    328.04   0.000041    0.20  0.000039  (-0.000677 -0.000657 -0.006138)
 21:    348.30   0.000073    0.37  0.000066  (-0.004277  0.003738 -0.005786)
 22:    375.51   0.000306    1.55  0.000254  (-0.000727  0.006034  0.014743)
 23:    398.30   0.000067    0.34  0.000052  (-0.000800  0.007081  0.001189)
 24:    433.88   0.000023    0.11  0.000016  (-0.003208 -0.002405  0.000502)
 25:    448.87   0.000009    0.05  0.000006  ( 0.001280 -0.000703 -0.002021)
 26:    475.54   0.000222    1.12  0.000146  (-0.001580 -0.009572  0.007191)
 27:    544.95   0.000082    0.42  0.000047  (-0.003373 -0.004258  0.004211)
 28:    565.85   0.000293    1.48  0.000161  (-0.003684  0.012077  0.001391)
 29:    585.35   0.000010    0.05  0.000005  ( 0.001793  0.000989 -0.001138)
 30:    645.79   0.000225    1.14  0.000109  ( 0.006465 -0.005689 -0.005879)
 31:    670.61   0.000020    0.10  0.000009  (-0.002077  0.002222 -0.000028)
 32:    753.80   0.000245    1.24  0.000101  ( 0.001366  0.008821 -0.004668)
 33:    794.53   0.001093    5.52  0.000429  ( 0.000185 -0.020651  0.001652)
 34:    807.65   0.000094    0.48  0.000036  (-0.005394  0.002443 -0.001167)
 35:    873.91   0.000133    0.67  0.000048  (-0.001721 -0.000308 -0.006667)
 36:    881.40   0.000398    2.01  0.000141  (-0.001256  0.011239  0.003607)
 37:    926.18   0.000285    1.44  0.000096  ( 0.002491 -0.003518 -0.008795)
 38:    938.40   0.000270    1.36  0.000090  ( 0.006980  0.003175 -0.005560)
 39:    948.06   0.000030    0.15  0.000010  ( 0.003068  0.000468 -0.000466)
 40:    969.33   0.000771    3.89  0.000248  (-0.013691  0.002973 -0.007198)
 41:    989.78   0.000533    2.70  0.000168  ( 0.005355 -0.007599 -0.009041)
 42:    994.20   0.000588    2.97  0.000185  ( 0.013062 -0.001545  0.003414)
 43:   1007.64   0.000555    2.80  0.000172  ( 0.005295  0.011250 -0.004154)
 44:   1018.52   0.000578    2.92  0.000177  ( 0.012271 -0.005148 -0.000015)
 45:   1035.47   0.000475    2.40  0.000143  (-0.010611 -0.001542  0.005316)
 46:   1041.54   0.000150    0.76  0.000045  (-0.004748 -0.004475  0.001522)
 47:   1048.44   0.000023    0.12  0.000007  (-0.000905  0.002447 -0.000346)
 48:   1065.14   0.000195    0.98  0.000057  ( 0.007321  0.000713  0.001707)
 49:   1091.51   0.000344    1.74  0.000098  (-0.008784  0.004588  0.000278)
 50:   1094.32   0.000065    0.33  0.000018  (-0.000145 -0.003297  0.002742)
 51:   1122.35   0.000040    0.20  0.000011  ( 0.003122 -0.000399  0.001108)
 52:   1123.72   0.000374    1.89  0.000104  ( 0.005101 -0.006729  0.005712)
 53:   1139.30   0.000266    1.34  0.000073  (-0.000572  0.007842  0.003321)
 54:   1164.96   0.000563    2.84  0.000151  ( 0.001989 -0.011002  0.005075)
 55:   1178.58   0.000689    3.48  0.000183  (-0.004591  0.012076  0.003955)
 56:   1194.63   0.001421    7.18  0.000371  ( 0.011999 -0.014542  0.003966)
 57:   1210.95   0.000667    3.37  0.000172  ( 0.006764 -0.010631 -0.003636)
 58:   1217.60   0.000136    0.69  0.000035  ( 0.003969 -0.004269 -0.000951)
 59:   1248.96   0.001403    7.09  0.000351  (-0.008774  0.015568 -0.005585)
 60:   1262.85   0.001104    5.58  0.000273  (-0.010809  0.012453 -0.000984)
 61:   1265.93   0.000373    1.89  0.000092  ( 0.008860  0.003583 -0.000790)
 62:   1282.14   0.000284    1.43  0.000069  (-0.004760 -0.005667  0.003774)
 63:   1306.08   0.000013    0.06  0.000003  ( 0.000761  0.000739 -0.001393)
 64:   1312.19   0.000440    2.22  0.000105  (-0.007816  0.006465 -0.001306)
 65:   1336.70   0.000351    1.77  0.000082  ( 0.005229  0.006706 -0.003111)
 66:   1353.81   0.000775    3.92  0.000179  ( 0.003596 -0.012545  0.002886)
 67:   1367.90   0.001175    5.94  0.000268  ( 0.007676 -0.014454 -0.000564)
 68:   1368.75   0.000139    0.70  0.000032  ( 0.002061 -0.002809  0.004412)
 69:   1383.02   0.000186    0.94  0.000042  (-0.004462 -0.000488 -0.004679)
 70:   1387.28   0.000523    2.64  0.000118  (-0.001119 -0.010081  0.003832)
 71:   1406.89   0.000274    1.38  0.000061  ( 0.000458  0.005004 -0.005953)
 72:   1432.04   0.000093    0.47  0.000020  ( 0.003351  0.002377 -0.001866)
 73:   1438.01   0.000517    2.61  0.000112  (-0.005198  0.004868 -0.007837)
 74:   1443.63   0.000541    2.73  0.000117  (-0.005120  0.002883 -0.009073)
 75:   1443.99   0.002787   14.08  0.000602  ( 0.018965  0.012639 -0.009100)
 76:   1449.29   0.001880    9.50  0.000405  (-0.012971 -0.008668 -0.012706)
 77:   1456.66   0.000852    4.31  0.000183  (-0.006326  0.002189  0.011739)
 78:   1461.28   0.000593    3.00  0.000127  (-0.003049 -0.010829 -0.000367)
 79:   1506.96   0.002089   10.56  0.000433  ( 0.016845 -0.001061 -0.012156)
 80:   1510.69   0.000511    2.58  0.000106  (-0.002833  0.009032 -0.004003)
 81:   1511.43   0.000825    4.17  0.000170  ( 0.009063  0.008033  0.004873)
 82:   1513.03   0.000874    4.42  0.000180  (-0.001337  0.006559 -0.011640)
 83:   1514.36   0.001098    5.55  0.000226  ( 0.005157 -0.011745  0.007856)
 84:   1519.08   0.000193    0.97  0.000040  (-0.006108  0.000321  0.001483)
 85:   1522.27   0.002057   10.40  0.000422  (-0.001892 -0.020416 -0.001160)
 86:   1526.27   0.002593   13.10  0.000530  (-0.003099  0.010589  0.020209)
 87:   1529.35   0.001993   10.07  0.000407  ( 0.007660 -0.007884  0.016904)
 88:   1532.79   0.002063   10.42  0.000420  ( 0.009565  0.007511  0.016495)
 89:   1538.13   0.001545    7.81  0.000313  (-0.007222  0.015282 -0.005262)
 90:   1539.46   0.000097    0.49  0.000020  (-0.004117  0.001621 -0.000087)
 91:   1561.62   0.000160    0.81  0.000032  ( 0.003930  0.002892 -0.002857)
 92:   1788.97   0.000554    2.80  0.000097  ( 0.005269  0.008300 -0.000015)
 93:   3031.74   0.004164   21.04  0.000429  ( 0.003121  0.005057 -0.019831)
 94:   3060.04   0.005157   26.06  0.000526  (-0.003246 -0.000277  0.022701)
 95:   3079.52   0.007830   39.57  0.000793  ( 0.005750  0.019346 -0.019650)
 96:   3081.54   0.009924   50.15  0.001005  (-0.014416  0.028213  0.001076)
 97:   3086.43   0.008965   45.31  0.000906  (-0.027101 -0.009236 -0.009311)
 98:   3092.15   0.011672   58.99  0.001178  (-0.006623 -0.033538  0.003047)
 99:   3095.02   0.008379   42.34  0.000845  (-0.022767 -0.012456  0.013088)
100:   3096.15   0.007818   39.51  0.000788  (-0.015395 -0.010083  0.021196)
101:   3105.94   0.006467   32.68  0.000650  ( 0.013248 -0.019875 -0.008904)
102:   3112.38   0.004382   22.14  0.000439  ( 0.019861  0.005066  0.004383)
103:   3132.63   0.004428   22.38  0.000441  ( 0.010863 -0.013069  0.012342)
104:   3133.22   0.009755   49.30  0.000972  ( 0.008435  0.019815  0.022534)
105:   3158.17   0.002285   11.55  0.000226  ( 0.003485 -0.003923  0.014079)
106:   3161.39   0.002772   14.01  0.000274  ( 0.003051 -0.007711 -0.014312)
107:   3166.86   0.000988    4.99  0.000097  ( 0.001775  0.006872  0.006857)
108:   3168.13   0.002881   14.56  0.000284  (-0.006322  0.015593  0.000837)
109:   3172.73   0.004759   24.05  0.000468  (-0.004875  0.021078  0.000045)
110:   3178.45   0.004000   20.22  0.000393  ( 0.009321  0.011494  0.013182)
111:   3178.91   0.006064   30.64  0.000595  ( 0.011691 -0.005767 -0.020623)
112:   3187.33   0.001790    9.04  0.000175  ( 0.011056 -0.001886 -0.007031)
113:   3193.11   0.008209   41.48  0.000802  ( 0.006756 -0.011374  0.025045)
114:   3198.33   0.003881   19.62  0.000379  ( 0.011884 -0.014768  0.004404)
115:   3214.78   0.002474   12.50  0.000240  ( 0.014885  0.003146  0.002950)
116:   3218.07   0.002219   11.21  0.000215  ( 0.013883 -0.002314  0.004134)

--------------------------
THERMOCHEMISTRY AT 298.15K
--------------------------

Temperature         ...   298.15 K
Pressure            ...     1.00 atm
Total Mass          ...   204.36 AMU
Quasi RRHO          ...     True
Cut-Off Frequency   ...     1.00 cm^-1

Throughout the following assumptions are being made:
  (1) The electronic state is orbitally nondegenerate
  (2) There are no thermally accessible electronically excited states
  (3) Hindered rotations indicated by low frequency modes are not
      treated as such but are treated as vibrations and this may
      cause some error
  (4) All equations used are the standard statistical mechanics
      equations for an ideal gas
  (5) All vibrations are strictly harmonic

freq.      44.12  E(vib)   ...       0.53
freq.      87.68  E(vib)   ...       0.48
freq.     114.41  E(vib)   ...       0.44
freq.     152.41  E(vib)   ...       0.40
freq.     169.77  E(vib)   ...       0.38
freq.     184.37  E(vib)   ...       0.37
freq.     191.48  E(vib)   ...       0.36
freq.     209.76  E(vib)   ...       0.34
freq.     220.04  E(vib)   ...       0.33
freq.     230.46  E(vib)   ...       0.32
freq.     268.03  E(vib)   ...       0.29
freq.     272.12  E(vib)   ...       0.29
freq.     288.23  E(vib)   ...       0.27
freq.     315.95  E(vib)   ...       0.25
freq.     328.04  E(vib)   ...       0.24
freq.     348.30  E(vib)   ...       0.23
freq.     375.51  E(vib)   ...       0.21
freq.     398.30  E(vib)   ...       0.20
freq.     433.88  E(vib)   ...       0.17
freq.     448.87  E(vib)   ...       0.17
freq.     475.54  E(vib)   ...       0.15
freq.     544.95  E(vib)   ...       0.12
freq.     565.85  E(vib)   ...       0.11
freq.     585.35  E(vib)   ...       0.11
freq.     645.79  E(vib)   ...       0.09
freq.     670.61  E(vib)   ...       0.08
freq.     753.80  E(vib)   ...       0.06
freq.     794.53  E(vib)   ...       0.05
freq.     807.65  E(vib)   ...       0.05
freq.     873.91  E(vib)   ...       0.04
freq.     881.40  E(vib)   ...       0.04
freq.     926.18  E(vib)   ...       0.03
freq.     938.40  E(vib)   ...       0.03
freq.     948.06  E(vib)   ...       0.03
freq.     969.33  E(vib)   ...       0.03
freq.     989.78  E(vib)   ...       0.02
freq.     994.20  E(vib)   ...       0.02
freq.    1007.64  E(vib)   ...       0.02
freq.    1018.52  E(vib)   ...       0.02
freq.    1035.47  E(vib)   ...       0.02
freq.    1041.54  E(vib)   ...       0.02
freq.    1048.44  E(vib)   ...       0.02
freq.    1065.14  E(vib)   ...       0.02
freq.    1091.51  E(vib)   ...       0.02
freq.    1094.32  E(vib)   ...       0.02
freq.    1122.35  E(vib)   ...       0.01
freq.    1123.72  E(vib)   ...       0.01
freq.    1139.30  E(vib)   ...       0.01
freq.    1164.96  E(vib)   ...       0.01
freq.    1178.58  E(vib)   ...       0.01
freq.    1194.63  E(vib)   ...       0.01
freq.    1210.95  E(vib)   ...       0.01
freq.    1217.60  E(vib)   ...       0.01
freq.    1248.96  E(vib)   ...       0.01
freq.    1262.85  E(vib)   ...       0.01
freq.    1265.93  E(vib)   ...       0.01
freq.    1282.14  E(vib)   ...       0.01
freq.    1306.08  E(vib)   ...       0.01
freq.    1312.19  E(vib)   ...       0.01
freq.    1336.70  E(vib)   ...       0.01
freq.    1353.81  E(vib)   ...       0.01
freq.    1367.90  E(vib)   ...       0.01
freq.    1368.75  E(vib)   ...       0.01
freq.    1383.02  E(vib)   ...       0.01
freq.    1387.28  E(vib)   ...       0.00
freq.    1406.89  E(vib)   ...       0.00
freq.    1432.04  E(vib)   ...       0.00
freq.    1438.01  E(vib)   ...       0.00
freq.    1443.63  E(vib)   ...       0.00
freq.    1443.99  E(vib)   ...       0.00
freq.    1449.29  E(vib)   ...       0.00
freq.    1456.66  E(vib)   ...       0.00
freq.    1461.28  E(vib)   ...       0.00
freq.    1506.96  E(vib)   ...       0.00
freq.    1510.69  E(vib)   ...       0.00
freq.    1511.43  E(vib)   ...       0.00
freq.    1513.03  E(vib)   ...       0.00
freq.    1514.36  E(vib)   ...       0.00
freq.    1519.08  E(vib)   ...       0.00
freq.    1522.27  E(vib)   ...       0.00
freq.    1526.27  E(vib)   ...       0.00
freq.    1529.35  E(vib)   ...       0.00
freq.    1532.79  E(vib)   ...       0.00
freq.    1538.13  E(vib)   ...       0.00
freq.    1539.46  E(vib)   ...       0.00
freq.    1561.62  E(vib)   ...       0.00
freq.    1788.97  E(vib)   ...       0.00
freq.    3031.74  E(vib)   ...       0.00
freq.    3060.04  E(vib)   ...       0.00
freq.    3079.52  E(vib)   ...       0.00
freq.    3081.54  E(vib)   ...       0.00
freq.    3086.43  E(vib)   ...       0.00
freq.    3092.15  E(vib)   ...       0.00
freq.    3095.02  E(vib)   ...       0.00
freq.    3096.15  E(vib)   ...       0.00
freq.    3105.94  E(vib)   ...       0.00
freq.    3112.38  E(vib)   ...       0.00
freq.    3132.63  E(vib)   ...       0.00
freq.    3133.22  E(vib)   ...       0.00
freq.    3158.17  E(vib)   ...       0.00
freq.    3161.39  E(vib)   ...       0.00
freq.    3166.86  E(vib)   ...       0.00
freq.    3168.13  E(vib)   ...       0.00
freq.    3172.73  E(vib)   ...       0.00
freq.    3178.45  E(vib)   ...       0.00
freq.    3178.91  E(vib)   ...       0.00
freq.    3187.33  E(vib)   ...       0.00
freq.    3193.11  E(vib)   ...       0.00
freq.    3198.33  E(vib)   ...       0.00
freq.    3214.78  E(vib)   ...       0.00
freq.    3218.07  E(vib)   ...       0.00

------------
INNER ENERGY
------------

The inner energy is: U= E(el) + E(ZPE) + E(vib) + E(rot) + E(trans)
    E(el)   - is the total energy from the electronic structure calculation
              = E(kin-el) + E(nuc-el) + E(el-el) + E(nuc-nuc)
    E(ZPE)  - the the zero temperature vibrational energy from the frequency calculation
    E(vib)  - the the finite temperature correction to E(ZPE) due to population
              of excited vibrational states
    E(rot)  - is the rotational thermal energy
    E(trans)- is the translational thermal energy

Summary of contributions to the inner energy U:
Electronic energy                ...    -99.93492456 Eh
Zero point energy                ...      0.36570627 Eh     229.48 kcal/mol
Thermal vibrational correction   ...      0.01230393 Eh       7.72 kcal/mol
Thermal rotational correction    ...      0.00141627 Eh       0.89 kcal/mol
Thermal translational correction ...      0.00141627 Eh       0.89 kcal/mol
-----------------------------------------------------------------------
Total thermal energy                    -99.55408182 Eh

Summary of corrections to the electronic energy:
(perhaps to be used in another calculation)
Total thermal correction                  0.01513647 Eh       9.50 kcal/mol
Non-thermal (ZPE) correction              0.36570627 Eh     229.48 kcal/mol
-----------------------------------------------------------------------
Total correction                          0.38084274 Eh     238.98 kcal/mol

Rotational constants in cm-1:     0.026393     0.019199     0.012467

                             ****ORCA TERMINATED NORMALLY****
TOTAL RUN TIME: 0 days 0 hours 33 minutes 50 seconds 122 msec
