                         Program Version 6.0.1  -  RELEASE   -
|  1> ! wB97X-3c OPT FREQ TightSCF
|  2> %pal
|  3>   nprocs 40
|  4> end
|  5> * xyz 0 1
|  6> C      1.906581     0.253234    -2.857287
|  7> C      0.824317     0.100860    -1.825542
|  8> C      1.111458     0.304820    -0.463039
|  9> C      0.082852     0.170142     0.488718
| 10> C     -1.215097    -0.202104     0.099316
| 11> C     -1.478493    -0.428956    -1.262400
| 12> C     -0.469609    -0.276187    -2.214264
| 13> C     -2.308917    -0.345389     1.141844
| 14> C     -3.440693     0.659647     0.897092
| 15> C     -2.845629    -1.781016     1.186483
| 16> O      2.413281     0.679246    -0.091177
| 17> C      3.026022     0.371769     1.130260
| 18> O      2.575536    -0.542895     1.872023
| 19> C      4.296643     1.057615     1.500605
| 20> H      2.686715    -0.519904    -2.694709
| 21> H      1.508298     0.141166    -3.888224
| 22> H      2.368305     1.259611    -2.772554
| 23> H      0.283136     0.382475     1.530258
| 24> H     -2.468028    -0.717681    -1.592143
| 25> H     -0.701112    -0.451987    -3.257556
| 26> H     -1.891926    -0.124732     2.149959
| 27> H     -4.183325     0.603827     1.721479
| 28> H     -3.961808     0.451475    -0.061376
| 29> H     -3.032374     1.692553     0.867450
| 30> H     -3.354103    -2.049317     0.236245
| 31> H     -2.011450    -2.493725     1.361721
| 32> H     -3.574092    -1.888536     2.018359
| 33> H      4.330307     2.066018     1.037607
| 34> H      5.158634     0.460551     1.137273
| 35> H      4.364572     1.167419     2.603580
| 36> *
| 37>
| 38>                          ****END OF INPUT****
 Total Charge           Charge          ....    0
 Multiplicity           Mult            ....    1
 Number of Electrons    NEL             ....   76
Dispersion correction           -0.036660975
FINAL SINGLE POINT ENERGY      -110.125586426260
Dispersion correction             ... done (  0.1 sec)
Dispersion correction           -0.037392900
FINAL SINGLE POINT ENERGY      -110.146337654720
Dispersion correction             ... done (  0.1 sec)
Dispersion correction           -0.037485280
FINAL SINGLE POINT ENERGY      -110.148628082556
Dispersion correction             ... done (  0.1 sec)
FINAL SINGLE POINT ENERGY      -110.148878112013
FINAL SINGLE POINT ENERGY      -110.149841898027
FINAL SINGLE POINT ENERGY      -110.150141157596
FINAL SINGLE POINT ENERGY      -110.150614935482
FINAL SINGLE POINT ENERGY      -110.151162236188
FINAL SINGLE POINT ENERGY      -110.151076367242
FINAL SINGLE POINT ENERGY      -110.151489441856
FINAL SINGLE POINT ENERGY      -110.151839949423
FINAL SINGLE POINT ENERGY      -110.151888302265
FINAL SINGLE POINT ENERGY      -110.151902067445
FINAL SINGLE POINT ENERGY      -110.151908581790
FINAL SINGLE POINT ENERGY      -110.151913739703
FINAL SINGLE POINT ENERGY      -110.151922122283
FINAL SINGLE POINT ENERGY      -110.151931724149
Dispersion correction             ... done (  0.1 sec)
Dispersion correction           -0.037933078
FINAL SINGLE POINT ENERGY      -110.151938949104
Dispersion correction             ... done (  0.1 sec)
Dispersion correction           -0.037926685
FINAL SINGLE POINT ENERGY      -110.151941999287
Dispersion correction             ... done (  0.1 sec)
                    ***********************HURRAY********************

CARTESIAN COORDINATES (ANGSTROEM)
---------------------------------
  C      2.100388    0.221691   -2.442476
  C      0.916348    0.107952   -1.537985
  C      0.985104    0.475878   -0.207025
  C     -0.089525    0.372267    0.649607
  C     -1.302347   -0.120029    0.199126
  C     -1.391628   -0.495964   -1.134197
  C     -0.304740   -0.381518   -1.979167
  C     -2.478907   -0.241508    1.136261
  C     -3.642064    0.634190    0.691303
  C     -2.911417   -1.691908    1.301311
  O      2.157250    1.035634    0.291542
  C      3.165323    0.204499    0.629976
  O      3.100676   -0.984712    0.526628
  C      4.340734    0.976005    1.133465
  H      2.852809   -0.523546   -2.186012
  H      1.809420    0.065618   -3.478343
  H      2.562901    1.204268   -2.362824
  H      0.033450    0.683581    1.677948
  H     -2.322470   -0.883207   -1.525964
  H     -0.402149   -0.680401   -3.014637
  H     -2.147171    0.118578    2.112774
  H     -4.457769    0.584906    1.412409
  H     -4.032404    0.309813   -0.273455
  H     -3.334940    1.674504    0.592643
  H     -3.275868   -2.103288    0.359883
  H     -2.081505   -2.312765    1.635721
  H     -3.716118   -1.772050    2.031979
  H      4.044777    1.582823    1.985735
  H      4.693345    1.650875    0.356854
  H      5.128500    0.287814    1.416921

 Multiplicity           Mult            ....    1
 Number of Electrons    NEL             ....   76
 Basis Dimension        Dim             ....  262

ORBITAL ENERGIES
----------------

  NO   OCC          E(Eh)            E(eV)
   0   2.0000      -1.250434       -34.0260
   1   2.0000      -1.154929       -31.4272
   2   2.0000      -1.014743       -27.6126
   3   2.0000      -0.957620       -26.0582
   4   2.0000      -0.916170       -24.9303
   5   2.0000      -0.903042       -24.5730
   6   2.0000      -0.875257       -23.8169
   7   2.0000      -0.825345       -22.4588
   8   2.0000      -0.821314       -22.3491
   9   2.0000      -0.769377       -20.9358
  10   2.0000      -0.741679       -20.1821
  11   2.0000      -0.725956       -19.7543
  12   2.0000      -0.656915       -17.8756
  13   2.0000      -0.627704       -17.0807
  14   2.0000      -0.620014       -16.8714
  15   2.0000      -0.617033       -16.7903
  16   2.0000      -0.599465       -16.3123
  17   2.0000      -0.584556       -15.9066
  18   2.0000      -0.562091       -15.2953
  19   2.0000      -0.551304       -15.0017
  20   2.0000      -0.543989       -14.8027
  21   2.0000      -0.541098       -14.7240
  22   2.0000      -0.529655       -14.4126
  23   2.0000      -0.527752       -14.3609
  24   2.0000      -0.512162       -13.9366
  25   2.0000      -0.504383       -13.7250
  26   2.0000      -0.502767       -13.6810
  27   2.0000      -0.498186       -13.5563
  28   2.0000      -0.483108       -13.1460
  29   2.0000      -0.468378       -12.7452
  30   2.0000      -0.463802       -12.6207
  31   2.0000      -0.445806       -12.1310
  32   2.0000      -0.443545       -12.0695
  33   2.0000      -0.433137       -11.7863
  34   2.0000      -0.419789       -11.4230
  35   2.0000      -0.395400       -10.7594
  36   2.0000      -0.347388        -9.4529
  37   2.0000      -0.330536        -8.9943
  38   0.0000       0.068405         1.8614
  39   0.0000       0.072103         1.9620
  40   0.0000       0.081431         2.2158
  41   0.0000       0.088165         2.3991
  42   0.0000       0.091722         2.4959

MULLIKEN ATOMIC CHARGES
-----------------------
   0 C :   -0.063955
   1 C :   -0.046686
   2 C :    0.054860
   3 C :    0.040408
   4 C :   -0.037219
   5 C :    0.022158
   6 C :    0.031218
   7 C :   -0.112403
   8 C :   -0.034449
   9 C :   -0.034594
  10 O :   -0.278720
  11 C :    0.233774
  12 O :   -0.289283
  13 C :   -0.061016
  14 H :    0.066075
  15 H :    0.032336
  16 H :    0.049042
  17 H :    0.016801
  18 H :    0.008024
  19 H :    0.013348
  20 H :    0.032274
  21 H :    0.027790
  22 H :    0.024658
  23 H :    0.040259
  24 H :    0.024621
  25 H :    0.044138
  26 H :    0.027490
  27 H :    0.057014
  28 H :    0.054065
  29 H :    0.057971
Sum of atomic charges:   -0.0000000

LOEWDIN ATOMIC CHARGES
----------------------
   0 C :   -0.099373
   1 C :   -0.034058
   2 C :   -0.013478
   3 C :   -0.022314
   4 C :   -0.025849
   5 C :   -0.037984
   6 C :   -0.033148
   7 C :   -0.081372
   8 C :   -0.103436
   9 C :   -0.102614
  10 O :    0.005615
  11 C :   -0.050837
  12 O :   -0.122115
  13 C :   -0.082514
  14 H :    0.054412
  15 H :    0.051754
  16 H :    0.050742
  17 H :    0.049353
  18 H :    0.043527
  19 H :    0.047405
  20 H :    0.050094
  21 H :    0.044600
  22 H :    0.041934
  23 H :    0.047109
  24 H :    0.042091
  25 H :    0.048721
  26 H :    0.044409
  27 H :    0.062794
  28 H :    0.061810
  29 H :    0.062723

  Mayer bond orders larger than 0.100000
B(  0-C ,  1-C ) :   1.0243 B(  0-C , 14-H ) :   0.9686 B(  0-C , 15-H ) :   0.9901
B(  0-C , 16-H ) :   0.9747 B(  1-C ,  2-C ) :   1.4760 B(  1-C ,  6-C ) :   1.4240
B(  2-C ,  3-C ) :   1.4617 B(  2-C , 10-O ) :   0.9230 B(  3-C ,  4-C ) :   1.4519
B(  3-C , 17-H ) :   0.9733 B(  4-C ,  5-C ) :   1.4325 B(  4-C ,  7-C ) :   1.0191
B(  5-C ,  6-C ) :   1.4596 B(  5-C , 18-H ) :   0.9848 B(  6-C , 19-H ) :   0.9826
B(  7-C ,  8-C ) :   0.9920 B(  7-C ,  9-C ) :   0.9923 B(  7-C , 20-H ) :   0.9966
B(  8-C , 21-H ) :   0.9921 B(  8-C , 22-H ) :   0.9902 B(  8-C , 23-H ) :   0.9925
B(  9-C , 24-H ) :   0.9902 B(  9-C , 25-H ) :   0.9918 B(  9-C , 26-H ) :   0.9921
B( 10-O , 11-C ) :   1.0966 B( 11-C , 12-O ) :   1.9666 B( 11-C , 13-C ) :   1.0527
B( 13-C , 27-H ) :   0.9714 B( 13-C , 28-H ) :   0.9731 B( 13-C , 29-H ) :   0.9857

Dispersion correction           -0.037927227
FINAL SINGLE POINT ENERGY      -110.151942471069

DIPOLE MOMENT
-------------

Method             : SCF
Type of density    : Electron Density
Multiplicity       :   1
Irrep              :   0
Energy             :  -110.1140152437154853 Eh
Relativity type    :
Basis              : AO
                                X                 Y                 Z
Electronic contribution:      7.570404483       0.907028439      -2.523140290
Nuclear contribution   :     -7.637929054      -0.246080702       2.546148389
                        -----------------------------------------
Total Dipole Moment    :     -0.067524570       0.660947737       0.023008098
                        -----------------------------------------
Magnitude (a.u.)       :      0.664786320
Magnitude (Debye)      :      1.689752539

VIBRATIONAL FREQUENCIES
-----------------------

Scaling factor for frequencies =  1.000000000  (already applied!)

     0:       0.00 cm**-1
     1:       0.00 cm**-1
     2:       0.00 cm**-1
     3:       0.00 cm**-1
     4:       0.00 cm**-1
     5:       0.00 cm**-1
     6:      29.96 cm**-1
     7:      41.60 cm**-1
     8:      57.54 cm**-1
     9:      85.35 cm**-1
    10:      96.81 cm**-1
    11:     106.84 cm**-1
    12:     142.36 cm**-1
    13:     190.61 cm**-1
    14:     201.45 cm**-1
    15:     236.96 cm**-1
    16:     258.26 cm**-1
    17:     277.25 cm**-1
    18:     295.52 cm**-1
    19:     300.96 cm**-1
    20:     350.97 cm**-1
    21:     395.46 cm**-1
    22:     441.01 cm**-1
    23:     467.76 cm**-1
    24:     485.77 cm**-1
    25:     568.09 cm**-1
    26:     585.42 cm**-1
    27:     621.97 cm**-1
    28:     640.98 cm**-1
    29:     710.37 cm**-1
    30:     735.72 cm**-1
    31:     756.83 cm**-1
    32:     810.00 cm**-1
    33:     856.79 cm**-1
    34:     893.39 cm**-1
    35:     920.69 cm**-1
    36:     953.61 cm**-1
    37:     956.94 cm**-1
    38:     994.12 cm**-1
    39:     996.74 cm**-1
    40:    1003.08 cm**-1
    41:    1036.83 cm**-1
    42:    1057.20 cm**-1
    43:    1089.42 cm**-1
    44:    1094.11 cm**-1
    45:    1102.79 cm**-1
    46:    1164.61 cm**-1
    47:    1171.98 cm**-1
    48:    1196.21 cm**-1
    49:    1227.51 cm**-1
    50:    1256.91 cm**-1
    51:    1302.48 cm**-1
    52:    1319.09 cm**-1
    53:    1330.37 cm**-1
    54:    1341.85 cm**-1
    55:    1380.72 cm**-1
    56:    1397.83 cm**-1
    57:    1435.86 cm**-1
    58:    1441.99 cm**-1
    59:    1447.51 cm**-1
    60:    1452.69 cm**-1
    61:    1497.56 cm**-1
    62:    1501.61 cm**-1
    63:    1508.66 cm**-1
    64:    1515.55 cm**-1
    65:    1515.67 cm**-1
    66:    1519.36 cm**-1
    67:    1531.42 cm**-1
    68:    1534.75 cm**-1
    69:    1540.52 cm**-1
    70:    1597.00 cm**-1
    71:    1691.06 cm**-1
    72:    1741.97 cm**-1
    73:    1898.71 cm**-1
    74:    3099.07 cm**-1
    75:    3101.62 cm**-1
    76:    3105.52 cm**-1
    77:    3110.66 cm**-1
    78:    3136.92 cm**-1
    79:    3188.85 cm**-1
    80:    3192.33 cm**-1
    81:    3197.49 cm**-1
    82:    3197.60 cm**-1
    83:    3199.63 cm**-1
    84:    3214.50 cm**-1
    85:    3230.94 cm**-1
    86:    3242.57 cm**-1
    87:    3259.41 cm**-1
    88:    3261.21 cm**-1
    89:    3267.00 cm**-1

IR SPECTRUM
-----------

 Mode   freq       eps      Int      T**2         TX        TY        TZ
       cm**-1   L/(mol*cm) km/mol    a.u.
----------------------------------------------------------------------------
  6:     29.96   0.000037    0.19  0.000387  ( 0.017159 -0.009385 -0.002073)
  7:     41.60   0.000346    1.75  0.002599  ( 0.023667 -0.001585 -0.045126)
  8:     57.54   0.000271    1.37  0.001471  ( 0.010002  0.004168 -0.036785)
  9:     85.35   0.000269    1.36  0.000983  ( 0.010457  0.003769 -0.029325)
 10:     96.81   0.000131    0.66  0.000423  (-0.002431  0.020047 -0.003858)
 11:    106.84   0.000799    4.04  0.002334  (-0.032989  0.032020 -0.014837)
 12:    142.36   0.000044    0.22  0.000096  ( 0.000781 -0.003343 -0.009167)
 13:    190.61   0.000108    0.54  0.000176  (-0.011676 -0.006303  0.000644)
 14:    201.45   0.000232    1.17  0.000359  (-0.012476  0.010558 -0.009574)
 15:    236.96   0.000025    0.13  0.000033  ( 0.003956 -0.003275  0.002646)
 16:    258.26   0.000076    0.39  0.000092  ( 0.004000  0.008674 -0.001014)
 17:    277.25   0.000081    0.41  0.000091  ( 0.001305  0.009170  0.002266)
 18:    295.52   0.000322    1.63  0.000340  (-0.016812 -0.000513 -0.007564)
 19:    300.96   0.000347    1.76  0.000360  ( 0.011593 -0.009526 -0.011623)
 20:    350.97   0.000237    1.20  0.000210  (-0.000137 -0.010930  0.009533)
 21:    395.46   0.000202    1.02  0.000159  (-0.000594 -0.011967  0.003946)
 22:    441.01   0.000037    0.19  0.000026  ( 0.002702  0.000497 -0.004344)
 23:    467.76   0.000213    1.08  0.000142  (-0.007608  0.005403 -0.007415)
 24:    485.77   0.001266    6.40  0.000814  (-0.005982 -0.027861 -0.001239)
 25:    568.09   0.002389   12.07  0.001312  (-0.031708  0.000308 -0.017511)
 26:    585.42   0.000482    2.43  0.000257  ( 0.015724 -0.002353 -0.002016)
 27:    621.97   0.001098    5.55  0.000551  ( 0.020757 -0.004530 -0.009974)
 28:    640.98   0.001493    7.55  0.000727  ( 0.011529 -0.012438  0.020961)
 29:    710.37   0.000484    2.44  0.000212  ( 0.006578  0.012991 -0.000659)
 30:    735.72   0.000768    3.88  0.000326  ( 0.000564  0.016960  0.006145)
 31:    756.83   0.000993    5.02  0.000409  ( 0.004589 -0.018298  0.007314)
 32:    810.00   0.001021    5.16  0.000393  ( 0.017874  0.006974  0.005022)
 33:    856.79   0.003454   17.45  0.001258  ( 0.009180 -0.033055  0.009000)
 34:    893.39   0.000210    1.06  0.000073  ( 0.001707 -0.008322  0.001068)
 35:    920.69   0.000929    4.70  0.000315  ( 0.002171  0.017315 -0.003242)
 36:    953.61   0.000121    0.61  0.000040  (-0.001937  0.005975 -0.000437)
 37:    956.94   0.003996   20.19  0.001303  (-0.008919  0.034485 -0.005863)
 38:    994.12   0.000139    0.70  0.000044  ( 0.006151  0.002386 -0.000082)
 39:    996.74   0.000779    3.94  0.000244  ( 0.014384 -0.005342  0.002925)
 40:   1003.08   0.001781    9.00  0.000554  (-0.019618  0.011661 -0.005761)
 41:   1036.83   0.001188    6.00  0.000357  ( 0.015734  0.003653 -0.009828)
 42:   1057.20   0.009381   47.41  0.002769  ( 0.051573  0.002150  0.010228)
 43:   1089.42   0.000741    3.74  0.000212  (-0.010229  0.009987 -0.002810)
 44:   1094.11   0.001763    8.91  0.000503  ( 0.010282 -0.000284 -0.019923)
 45:   1102.79   0.002756   13.93  0.000780  ( 0.024850  0.000446 -0.012733)
 46:   1164.61   0.009297   46.98  0.002491  ( 0.039545  0.005152  0.030014)
 47:   1171.98   0.000193    0.98  0.000051  ( 0.001991 -0.006708  0.001567)
 48:   1196.21   0.000277    1.40  0.000072  ( 0.000767 -0.002949 -0.007936)
 49:   1227.51   0.003615   18.27  0.000919  ( 0.025897  0.000080  0.015763)
 50:   1256.91   0.003873   19.57  0.000962  ( 0.028130 -0.002915  0.012722)
 51:   1302.48   0.085975  434.48  0.020599  (-0.132505  0.027626 -0.047729)
 52:   1319.09   0.026774  135.31  0.006334  ( 0.074369 -0.001227  0.028317)
 53:   1330.37   0.001403    7.09  0.000329  (-0.013818 -0.002038  0.011580)
 54:   1341.85   0.001000    5.05  0.000233  (-0.014395 -0.000217 -0.005035)
 55:   1380.72   0.000072    0.36  0.000016  (-0.000935  0.003796 -0.000971)
 56:   1397.83   0.001019    5.15  0.000227  (-0.013993 -0.004006  0.003944)
 57:   1435.86   0.002410   12.18  0.000524  ( 0.007504 -0.020797  0.005906)
 58:   1441.99   0.026465  133.74  0.005727  ( 0.071118  0.005125  0.025360)
 59:   1447.51   0.001669    8.43  0.000360  (-0.012200 -0.004618 -0.013772)
 60:   1452.69   0.001135    5.74  0.000244  ( 0.014012  0.005994  0.003403)
 61:   1497.56   0.003268   16.52  0.000681  (-0.024900 -0.005452 -0.005597)
 62:   1501.61   0.004071   20.57  0.000846  ( 0.004465  0.028361  0.004656)
 63:   1508.66   0.002608   13.18  0.000539  (-0.011259 -0.001491  0.020261)
 64:   1515.55   0.000701    3.54  0.000144  (-0.000766  0.011709 -0.002577)
 65:   1515.67   0.002026   10.24  0.000417  (-0.002751  0.019648 -0.004859)
 66:   1519.36   0.000774    3.91  0.000159  (-0.003182  0.011842 -0.002920)
 67:   1531.42   0.005009   25.31  0.001021  (-0.018185 -0.010064 -0.024265)
 68:   1534.75   0.000411    2.08  0.000084  (-0.008939  0.000740  0.001754)
 69:   1540.52   0.004106   20.75  0.000832  ( 0.010992  0.005348  0.026121)
 70:   1597.00   0.008567   43.29  0.001674  (-0.039943 -0.005703  0.006787)
 71:   1691.06   0.003974   20.08  0.000733  ( 0.020628  0.002316  0.017393)
 72:   1741.97   0.002075   10.49  0.000372  ( 0.018463 -0.000832 -0.005491)
 73:   1898.71   0.050515  255.28  0.008302  (-0.008902  0.090672  0.001304)
 74:   3099.07   0.005769   29.15  0.000581  ( 0.008852 -0.021645  0.005836)
 75:   3101.62   0.006239   31.53  0.000628  ( 0.023354  0.009040  0.000767)
 76:   3105.52   0.003472   17.54  0.000349  ( 0.004478 -0.003407 -0.017810)
 77:   3110.66   0.005034   25.44  0.000505  ( 0.015429  0.003454 -0.015968)
 78:   3136.92   0.000301    1.52  0.000030  (-0.003948 -0.003467 -0.001539)
 79:   3188.85   0.000032    0.16  0.000003  (-0.000345  0.001709 -0.000237)
 80:   3192.33   0.008765   44.29  0.000857  (-0.011996  0.003465  0.026474)
 81:   3197.49   0.002295   11.60  0.000224  ( 0.006237  0.013541 -0.001326)
 82:   3197.60   0.000865    4.37  0.000084  ( 0.001183  0.008797 -0.002379)
 83:   3199.63   0.003393   17.15  0.000331  (-0.017789  0.000133 -0.003800)
 84:   3214.50   0.001307    6.61  0.000127  (-0.004067 -0.003235 -0.009994)
 85:   3230.94   0.000036    0.18  0.000003  ( 0.000115  0.000138 -0.001847)
 86:   3242.57   0.001331    6.73  0.000128  ( 0.006925  0.000084 -0.008954)
 87:   3259.41   0.001458    7.37  0.000140  ( 0.004722  0.004364  0.009912)
 88:   3261.21   0.001416    7.16  0.000136  (-0.008172 -0.003840 -0.007349)
 89:   3267.00   0.000229    1.16  0.000022  ( 0.004279  0.000613  0.001787)

--------------------------
THERMOCHEMISTRY AT 298.15K
--------------------------

Temperature         ...   298.15 K
Pressure            ...     1.00 atm
Total Mass          ...   192.26 AMU
Quasi RRHO          ...     True
Cut-Off Frequency   ...     1.00 cm^-1

Throughout the following assumptions are being made:
  (1) The electronic state is orbitally nondegenerate
  (2) There are no thermally accessible electronically excited states
  (3) Hindered rotations indicated by low frequency modes are not
      treated as such but are treated as vibrations and this may
      cause some error
  (4) All equations used are the standard statistical mechanics
      equations for an ideal gas
  (5) All vibrations are strictly harmonic

freq.      29.96  E(vib)   ...       0.55
freq.      41.60  E(vib)   ...       0.54
freq.      57.54  E(vib)   ...       0.51
freq.      85.35  E(vib)   ...       0.48
freq.      96.81  E(vib)   ...       0.46
freq.     106.84  E(vib)   ...       0.45
freq.     142.36  E(vib)   ...       0.41
freq.     190.61  E(vib)   ...       0.36
freq.     201.45  E(vib)   ...       0.35
freq.     236.96  E(vib)   ...       0.32
freq.     258.26  E(vib)   ...       0.30
freq.     277.25  E(vib)   ...       0.28
freq.     295.52  E(vib)   ...       0.27
freq.     300.96  E(vib)   ...       0.26
freq.     350.97  E(vib)   ...       0.23
freq.     395.46  E(vib)   ...       0.20
freq.     441.01  E(vib)   ...       0.17
freq.     467.76  E(vib)   ...       0.16
freq.     485.77  E(vib)   ...       0.15
freq.     568.09  E(vib)   ...       0.11
freq.     585.42  E(vib)   ...       0.11
freq.     621.97  E(vib)   ...       0.09
freq.     640.98  E(vib)   ...       0.09
freq.     710.37  E(vib)   ...       0.07
freq.     735.72  E(vib)   ...       0.06
freq.     756.83  E(vib)   ...       0.06
freq.     810.00  E(vib)   ...       0.05
freq.     856.79  E(vib)   ...       0.04
freq.     893.39  E(vib)   ...       0.03
freq.     920.69  E(vib)   ...       0.03
freq.     953.61  E(vib)   ...       0.03
freq.     956.94  E(vib)   ...       0.03
freq.     994.12  E(vib)   ...       0.02
freq.     996.74  E(vib)   ...       0.02
freq.    1003.08  E(vib)   ...       0.02
freq.    1036.83  E(vib)   ...       0.02
freq.    1057.20  E(vib)   ...       0.02
freq.    1089.42  E(vib)   ...       0.02
freq.    1094.11  E(vib)   ...       0.02
freq.    1102.79  E(vib)   ...       0.02
freq.    1164.61  E(vib)   ...       0.01
freq.    1171.98  E(vib)   ...       0.01
freq.    1196.21  E(vib)   ...       0.01
freq.    1227.51  E(vib)   ...       0.01
freq.    1256.91  E(vib)   ...       0.01
freq.    1302.48  E(vib)   ...       0.01
freq.    1319.09  E(vib)   ...       0.01
freq.    1330.37  E(vib)   ...       0.01
freq.    1341.85  E(vib)   ...       0.01
freq.    1380.72  E(vib)   ...       0.01
freq.    1397.83  E(vib)   ...       0.00
freq.    1435.86  E(vib)   ...       0.00
freq.    1441.99  E(vib)   ...       0.00
freq.    1447.51  E(vib)   ...       0.00
freq.    1452.69  E(vib)   ...       0.00
freq.    1497.56  E(vib)   ...       0.00
freq.    1501.61  E(vib)   ...       0.00
freq.    1508.66  E(vib)   ...       0.00
freq.    1515.55  E(vib)   ...       0.00
freq.    1515.67  E(vib)   ...       0.00
freq.    1519.36  E(vib)   ...       0.00
freq.    1531.42  E(vib)   ...       0.00
freq.    1534.75  E(vib)   ...       0.00
freq.    1540.52  E(vib)   ...       0.00
freq.    1597.00  E(vib)   ...       0.00
freq.    1691.06  E(vib)   ...       0.00
freq.    1741.97  E(vib)   ...       0.00
freq.    1898.71  E(vib)   ...       0.00
freq.    3099.07  E(vib)   ...       0.00
freq.    3101.62  E(vib)   ...       0.00
freq.    3105.52  E(vib)   ...       0.00
freq.    3110.66  E(vib)   ...       0.00
freq.    3136.92  E(vib)   ...       0.00
freq.    3188.85  E(vib)   ...       0.00
freq.    3192.33  E(vib)   ...       0.00
freq.    3197.49  E(vib)   ...       0.00
freq.    3197.60  E(vib)   ...       0.00
freq.    3199.63  E(vib)   ...       0.00
freq.    3214.50  E(vib)   ...       0.00
freq.    3230.94  E(vib)   ...       0.00
freq.    3242.57  E(vib)   ...       0.00
freq.    3259.41  E(vib)   ...       0.00
freq.    3261.21  E(vib)   ...       0.00
freq.    3267.00  E(vib)   ...       0.00

------------
INNER ENERGY
------------

The inner energy is: U= E(el) + E(ZPE) + E(vib) + E(rot) + E(trans)
    E(el)   - is the total energy from the electronic structure calculation
              = E(kin-el) + E(nuc-el) + E(el-el) + E(nuc-nuc)
    E(ZPE)  - the the zero temperature vibrational energy from the frequency calculation
    E(vib)  - the the finite temperature correction to E(ZPE) due to population
              of excited vibrational states
    E(rot)  - is the rotational thermal energy
    E(trans)- is the translational thermal energy

Summary of contributions to the inner energy U:
Electronic energy                ...   -110.15194247 Eh
Zero point energy                ...      0.26042708 Eh     163.42 kcal/mol
Thermal vibrational correction   ...      0.01199737 Eh       7.53 kcal/mol
Thermal rotational correction    ...      0.00141627 Eh       0.89 kcal/mol
Thermal translational correction ...      0.00141627 Eh       0.89 kcal/mol
-----------------------------------------------------------------------
Total thermal energy                   -109.87668547 Eh

Summary of corrections to the electronic energy:
(perhaps to be used in another calculation)
Total thermal correction                  0.01482992 Eh       9.31 kcal/mol
Non-thermal (ZPE) correction              0.26042708 Eh     163.42 kcal/mol
-----------------------------------------------------------------------
Total correction                          0.27525700 Eh     172.73 kcal/mol

--------
ENTHALPY
--------

The enthalpy is H = U + kB*T
                kB is Boltzmann's constant
Total thermal energy              ...   -109.87668547 Eh
Thermal Enthalpy correction       ...      0.00094421 Eh       0.59 kcal/mol
-----------------------------------------------------------------------
Total Enthalpy                    ...   -109.87574126 Eh

Note: Only C1 symmetry has been detected, increase convergence thresholds
      if your molecule has a higher symmetry. Symmetry factor of 1.0 is
      used for the rotational entropy correction.

Note: Rotational entropy computed according to Herzberg
Infrared and Raman Spectra, Chapter V,1, Van Nostrand Reinhold, 1945
Point Group:  C1, Symmetry Number:   1
Rotational constants in cm-1:     0.043176     0.012994     0.011366

Vibrational entropy computed according to the QRRHO of S. Grimme
Chem.Eur.J. 2012 18 9955 using a reference frequency of 100.0 cm-1

                             ****ORCA TERMINATED NORMALLY****
TOTAL RUN TIME: 0 days 0 hours 32 minutes 22 seconds 380 msec
