                         Program Version 6.0.1  -  RELEASE   -
|  1> ! wB97X-3c OPT FREQ TightSCF
|  2> %pal
|  3>   nprocs 40
|  4> end
|  5> * xyz 0 1
|  6> C      4.317776     1.829604    -0.786576
|  7> C      3.656471     0.708886     0.010313
|  8> C      2.162161     0.605124    -0.315309
|  9> C      1.501137    -0.521633     0.487399
| 10> C      0.006736    -0.625523     0.161380
| 11> C     -0.659962    -1.741085     0.978631
| 12> C     -2.124802    -1.965387     0.575560
| 13> C     -2.995862    -0.770709     0.877956
| 14> O     -3.066959    -0.354011     2.024931
| 15> C     -3.821022    -0.113399    -0.198138
| 16> C     -3.351024     1.313442    -0.462117
| 17> H      5.397054     1.880811    -0.530639
| 18> H      3.848044     2.806136    -0.541978
| 19> H      4.219914     1.637851    -1.876412
| 20> H      4.161039    -0.251504    -0.233442
| 21> H      3.790697     0.911832     1.095280
| 22> H      1.665086     1.570425    -0.072753
| 23> H      2.035516     0.405632    -1.402430
| 24> H      1.627139    -0.321980     1.574565
| 25> H      1.998852    -1.486504     0.244855
| 26> H     -0.481280     0.344004     0.398219
| 27> H     -0.120082    -0.833678    -0.923935
| 28> H     -0.600981    -1.500356     2.062961
| 29> H     -0.108543    -2.692712     0.813942
| 30> H     -2.172170    -2.228460    -0.503164
| 31> H     -2.519198    -2.835497     1.143019
| 32> H     -3.764476    -0.689411    -1.146367
| 33> H     -4.884856    -0.096093     0.122371
| 34> H     -4.009843     1.785763    -1.220916
| 35> H     -3.394580     1.917562     0.469197
| 36> H     -2.311983     1.310870    -0.852839
| 37> *
| 38>
| 39>                          ****END OF INPUT****
 Total Charge           Charge          ....    0
 Multiplicity           Mult            ....    1
 Number of Electrons    NEL             ....   66
Dispersion correction           -0.029959417
FINAL SINGLE POINT ENERGY       -85.122456482013
Dispersion correction             ... done (  0.1 sec)
Dispersion correction           -0.030097770
FINAL SINGLE POINT ENERGY       -85.130199472412
Dispersion correction             ... done (  0.1 sec)
Dispersion correction           -0.029956636
FINAL SINGLE POINT ENERGY       -85.130734440472
Dispersion correction             ... done (  0.1 sec)
FINAL SINGLE POINT ENERGY       -85.131369417033
FINAL SINGLE POINT ENERGY       -85.131849470131
FINAL SINGLE POINT ENERGY       -85.133069207433
FINAL SINGLE POINT ENERGY       -85.133413471285
FINAL SINGLE POINT ENERGY       -85.133741677490
FINAL SINGLE POINT ENERGY       -85.133862620659
FINAL SINGLE POINT ENERGY       -85.133875417155
FINAL SINGLE POINT ENERGY       -85.133887968871
FINAL SINGLE POINT ENERGY       -85.133896306726
FINAL SINGLE POINT ENERGY       -85.133906593811
Dispersion correction             ... done (  0.1 sec)
Dispersion correction           -0.029840042
FINAL SINGLE POINT ENERGY       -85.133913360802
Dispersion correction             ... done (  0.1 sec)
Dispersion correction           -0.029846984
FINAL SINGLE POINT ENERGY       -85.133916502960
Dispersion correction             ... done (  0.1 sec)
                    ***********************HURRAY********************

CARTESIAN COORDINATES (ANGSTROEM)
---------------------------------
  C      4.679017    1.731442   -0.530266
  C      3.895666    0.618704    0.138550
  C      2.427475    0.614975   -0.244269
  C      1.634748   -0.494778    0.419727
  C      0.166871   -0.493669    0.037813
  C     -0.617872   -1.610679    0.701321
  C     -2.085909   -1.604473    0.330382
  C     -2.882415   -0.478038    0.939470
  O     -2.464359    0.183184    1.858092
  C     -4.234023   -0.197839    0.333182
  C     -4.109787    0.879975   -0.734759
  H      5.728542    1.713832   -0.238335
  H      4.276959    2.709389   -0.263124
  H      4.635397    1.644237   -1.616565
  H      4.337589   -0.347148   -0.119835
  H      3.983353    0.710153    1.224162
  H      1.984186    1.580837    0.015465
  H      2.338408    0.524724   -1.331278
  H      1.722162   -0.402223    1.505907
  H      2.077755   -1.461280    0.160691
  H     -0.274690    0.467470    0.309353
  H      0.076551   -0.583989   -1.049464
  H     -0.527654   -1.524520    1.784975
  H     -0.185981   -2.573966    0.421766
  H     -2.222724   -1.581111   -0.754054
  H     -2.577280   -2.524814    0.661426
  H     -4.647857   -1.109319   -0.099478
  H     -4.894995    0.139767    1.129716
  H     -5.079392    1.092914   -1.180689
  H     -3.724226    1.801176   -0.301358
  H     -3.435515    0.575065   -1.534960

 Multiplicity           Mult            ....    1
 Number of Electrons    NEL             ....   66
 Basis Dimension        Dim             ....  243

ORBITAL ENERGIES
----------------

  NO   OCC          E(Eh)            E(eV)
   0   2.0000      -1.170078       -31.8394
   1   2.0000      -0.957234       -26.0477
   2   2.0000      -0.937737       -25.5171
   3   2.0000      -0.921765       -25.0825
   4   2.0000      -0.881793       -23.9948
   5   2.0000      -0.826508       -22.4904
   6   2.0000      -0.784267       -21.3410
   7   2.0000      -0.747367       -20.3369
   8   2.0000      -0.708951       -19.2915
   9   2.0000      -0.701288       -19.0830
  10   2.0000      -0.644888       -17.5483
  11   2.0000      -0.613163       -16.6850
  12   2.0000      -0.593009       -16.1366
  13   2.0000      -0.585396       -15.9294
  14   2.0000      -0.574180       -15.6242
  15   2.0000      -0.560229       -15.2446
  16   2.0000      -0.545627       -14.8473
  17   2.0000      -0.534573       -14.5465
  18   2.0000      -0.521241       -14.1837
  19   2.0000      -0.517319       -14.0770
  20   2.0000      -0.498129       -13.5548
  21   2.0000      -0.491827       -13.3833
  22   2.0000      -0.478888       -13.0312
  23   2.0000      -0.474133       -12.9018
  24   2.0000      -0.464105       -12.6289
  25   2.0000      -0.455265       -12.3884
  26   2.0000      -0.450341       -12.2544
  27   2.0000      -0.441824       -12.0227
  28   2.0000      -0.427687       -11.6380
  29   2.0000      -0.427288       -11.6271
  30   2.0000      -0.420498       -11.4423
  31   2.0000      -0.408336       -11.1114
  32   2.0000      -0.354471        -9.6457
  33   0.0000       0.065898         1.7932
  34   0.0000       0.085139         2.3167
  35   0.0000       0.094726         2.5776
  36   0.0000       0.097288         2.6473
  37   0.0000       0.103799         2.8245

MULLIKEN ATOMIC CHARGES
-----------------------
   0 C :   -0.063250
   1 C :   -0.063719
   2 C :   -0.052051
   3 C :   -0.059778
   4 C :   -0.044926
   5 C :   -0.037109
   6 C :   -0.086316
   7 C :    0.160769
   8 O :   -0.298049
   9 C :   -0.063883
  10 C :   -0.066659
  11 H :    0.029599
  12 H :    0.025129
  13 H :    0.024275
  14 H :    0.026381
  15 H :    0.027959
  16 H :    0.028161
  17 H :    0.022995
  18 H :    0.031190
  19 H :    0.020845
  20 H :    0.044802
  21 H :    0.020836
  22 H :    0.046580
  23 H :    0.029264
  24 H :    0.035607
  25 H :    0.062773
  26 H :    0.035309
  27 H :    0.052386
  28 H :    0.038094
  29 H :    0.047290
  30 H :    0.025496
Sum of atomic charges:   -0.0000000

LOEWDIN ATOMIC CHARGES
----------------------
   0 C :   -0.116772
   1 C :   -0.092932
   2 C :   -0.085972
   3 C :   -0.082763
   4 C :   -0.081646
   5 C :   -0.076821
   6 C :   -0.083092
   7 C :    0.003460
   8 O :   -0.124837
   9 C :   -0.082997
  10 C :   -0.101978
  11 H :    0.043108
  12 H :    0.042143
  13 H :    0.041440
  14 H :    0.041988
  15 H :    0.043043
  16 H :    0.043744
  17 H :    0.041434
  18 H :    0.045331
  19 H :    0.041307
  20 H :    0.045762
  21 H :    0.038758
  22 H :    0.050535
  23 H :    0.044602
  24 H :    0.053006
  25 H :    0.062342
  26 H :    0.049256
  27 H :    0.057291
  28 H :    0.048306
  29 H :    0.050760
  30 H :    0.042194

  Mayer bond orders larger than 0.100000
B(  0-C ,  1-C ) :   1.0002 B(  0-C , 11-H ) :   0.9954 B(  0-C , 12-H ) :   0.9941
B(  0-C , 13-H ) :   0.9941 B(  1-C ,  2-C ) :   0.9768 B(  1-C , 14-H ) :   0.9972
B(  1-C , 15-H ) :   0.9969 B(  2-C ,  3-C ) :   0.9874 B(  2-C , 16-H ) :   0.9970
B(  2-C , 17-H ) :   0.9979 B(  3-C ,  4-C ) :   0.9923 B(  3-C , 18-H ) :   0.9967
B(  3-C , 19-H ) :   0.9980 B(  4-C ,  5-C ) :   0.9696 B(  4-C , 20-H ) :   0.9926
B(  4-C , 21-H ) :   0.9968 B(  5-C ,  6-C ) :   1.0060 B(  5-C , 22-H ) :   0.9877
B(  5-C , 23-H ) :   0.9974 B(  6-C ,  7-C ) :   1.0024 B(  6-C , 24-H ) :   0.9763
B(  6-C , 25-H ) :   0.9698 B(  7-C ,  8-O ) :   1.9441 B(  7-C ,  9-C ) :   1.0080
B(  9-C , 10-C ) :   0.9800 B(  9-C , 26-H ) :   0.9877 B(  9-C , 27-H ) :   0.9835
B( 10-C , 28-H ) :   0.9950 B( 10-C , 29-H ) :   0.9900 B( 10-C , 30-H ) :   0.9933

Dispersion correction           -0.029848103
FINAL SINGLE POINT ENERGY       -85.133916993264

DIPOLE MOMENT
-------------

Method             : SCF
Type of density    : Electron Density
Multiplicity       :   1
Irrep              :   0
Energy             :   -85.1040688905885219 Eh
Relativity type    :
Basis              : AO
                                X                 Y                 Z
Electronic contribution:    -10.100436860      -3.342909919       5.998978594
Nuclear contribution   :      9.705884839       2.758681206      -6.863332197
                        -----------------------------------------
Total Dipole Moment    :     -0.394552021      -0.584228713      -0.864353603
                        -----------------------------------------
Magnitude (a.u.)       :      1.115393042
Magnitude (Debye)      :      2.835103802

VIBRATIONAL FREQUENCIES
-----------------------

Scaling factor for frequencies =  1.000000000  (already applied!)

     0:       0.00 cm**-1
     1:       0.00 cm**-1
     2:       0.00 cm**-1
     3:       0.00 cm**-1
     4:       0.00 cm**-1
     5:       0.00 cm**-1
     6:      26.00 cm**-1
     7:      42.77 cm**-1
     8:      45.19 cm**-1
     9:      60.19 cm**-1
    10:      93.19 cm**-1
    11:     114.33 cm**-1
    12:     131.45 cm**-1
    13:     159.60 cm**-1
    14:     211.71 cm**-1
    15:     237.05 cm**-1
    16:     249.18 cm**-1
    17:     259.47 cm**-1
    18:     272.13 cm**-1
    19:     290.43 cm**-1
    20:     409.62 cm**-1
    21:     435.11 cm**-1
    22:     509.32 cm**-1
    23:     572.32 cm**-1
    24:     626.33 cm**-1
    25:     740.49 cm**-1
    26:     749.21 cm**-1
    27:     779.81 cm**-1
    28:     820.91 cm**-1
    29:     848.44 cm**-1
    30:     890.26 cm**-1
    31:     926.04 cm**-1
    32:     935.38 cm**-1
    33:     983.53 cm**-1
    34:    1020.73 cm**-1
    35:    1046.63 cm**-1
    36:    1064.17 cm**-1
    37:    1075.20 cm**-1
    38:    1092.51 cm**-1
    39:    1110.17 cm**-1
    40:    1115.10 cm**-1
    41:    1122.56 cm**-1
    42:    1170.29 cm**-1
    43:    1176.81 cm**-1
    44:    1216.32 cm**-1
    45:    1243.15 cm**-1
    46:    1260.77 cm**-1
    47:    1296.07 cm**-1
    48:    1306.79 cm**-1
    49:    1317.19 cm**-1
    50:    1351.06 cm**-1
    51:    1356.07 cm**-1
    52:    1362.12 cm**-1
    53:    1371.43 cm**-1
    54:    1380.61 cm**-1
    55:    1409.67 cm**-1
    56:    1440.63 cm**-1
    57:    1443.47 cm**-1
    58:    1449.52 cm**-1
    59:    1458.59 cm**-1
    60:    1468.42 cm**-1
    61:    1482.03 cm**-1
    62:    1510.36 cm**-1
    63:    1515.18 cm**-1
    64:    1517.07 cm**-1
    65:    1519.17 cm**-1
    66:    1524.13 cm**-1
    67:    1527.79 cm**-1
    68:    1529.80 cm**-1
    69:    1533.43 cm**-1
    70:    1537.53 cm**-1
    71:    1540.72 cm**-1
    72:    1865.12 cm**-1
    73:    3074.74 cm**-1
    74:    3076.75 cm**-1
    75:    3080.30 cm**-1
    76:    3088.12 cm**-1
    77:    3089.51 cm**-1
    78:    3097.10 cm**-1
    79:    3105.10 cm**-1
    80:    3109.31 cm**-1
    81:    3114.25 cm**-1
    82:    3121.83 cm**-1
    83:    3126.85 cm**-1
    84:    3137.41 cm**-1
    85:    3140.84 cm**-1
    86:    3148.00 cm**-1
    87:    3167.06 cm**-1
    88:    3184.10 cm**-1
    89:    3185.89 cm**-1
    90:    3189.39 cm**-1
    91:    3202.65 cm**-1
    92:    3212.44 cm**-1

IR SPECTRUM
-----------

 Mode   freq       eps      Int      T**2         TX        TY        TZ
       cm**-1   L/(mol*cm) km/mol    a.u.
----------------------------------------------------------------------------
  6:     26.00   0.000267    1.35  0.003202  ( 0.023932  0.035652 -0.036859)
  7:     42.77   0.000338    1.71  0.002464  (-0.038540 -0.015847  0.026976)
  8:     45.19   0.000029    0.15  0.000201  (-0.011276 -0.008567  0.000356)
  9:     60.19   0.000232    1.17  0.001204  ( 0.005614 -0.023643  0.024775)
 10:     93.19   0.000226    1.14  0.000756  ( 0.025703 -0.005358 -0.008190)
 11:    114.33   0.000287    1.45  0.000784  (-0.011086 -0.014039  0.021550)
 12:    131.45   0.000055    0.28  0.000131  ( 0.000588 -0.008436  0.007695)
 13:    159.60   0.000127    0.64  0.000248  (-0.012290 -0.001669  0.009706)
 14:    211.71   0.000041    0.21  0.000061  ( 0.001316  0.006598  0.003904)
 15:    237.05   0.000231    1.17  0.000304  ( 0.001766 -0.013340  0.011074)
 16:    249.18   0.000016    0.08  0.000020  ( 0.003945 -0.001870 -0.000832)
 17:    259.47   0.000136    0.69  0.000164  (-0.010974  0.006201  0.002254)
 18:    272.13   0.000115    0.58  0.000131  ( 0.006538 -0.009397  0.000651)
 19:    290.43   0.000885    4.47  0.000951  ( 0.022453 -0.014285 -0.015586)
 20:    409.62   0.000384    1.94  0.000293  ( 0.015722 -0.002810  0.006135)
 21:    435.11   0.000165    0.83  0.000118  ( 0.010858 -0.000305 -0.000655)
 22:    509.32   0.001153    5.83  0.000706  (-0.024540  0.010180 -0.000794)
 23:    572.32   0.000281    1.42  0.000153  (-0.011357  0.004338  0.002313)
 24:    626.33   0.000629    3.18  0.000313  (-0.014264  0.010122 -0.002752)
 25:    740.49   0.001273    6.43  0.000537  ( 0.009792 -0.013419 -0.016143)
 26:    749.21   0.000481    2.43  0.000200  (-0.001868  0.008631  0.011059)
 27:    779.81   0.000034    0.17  0.000014  ( 0.001800  0.001131  0.003014)
 28:    820.91   0.000711    3.59  0.000270  ( 0.007898 -0.009201 -0.011095)
 29:    848.44   0.000123    0.62  0.000045  ( 0.006354  0.000214  0.002166)
 30:    890.26   0.001206    6.10  0.000423  (-0.016714 -0.011726  0.002445)
 31:    926.04   0.000020    0.10  0.000007  ( 0.001175 -0.001377  0.001826)
 32:    935.38   0.000207    1.05  0.000069  (-0.005970  0.002834 -0.005041)
 33:    983.53   0.005428   27.43  0.001722  ( 0.036777 -0.019104  0.002134)
 34:   1020.73   0.000065    0.33  0.000020  (-0.003546  0.002365 -0.001283)
 35:   1046.63   0.000111    0.56  0.000033  (-0.000414 -0.002633 -0.005087)
 36:   1064.17   0.000370    1.87  0.000108  ( 0.007444  0.003879  0.006166)
 37:   1075.20   0.002623   13.25  0.000761  ( 0.018438 -0.020353 -0.002638)
 38:   1092.51   0.000440    2.22  0.000126  ( 0.010275 -0.001134  0.004324)
 39:   1110.17   0.000186    0.94  0.000052  ( 0.000770 -0.000899 -0.007135)
 40:   1115.10   0.000258    1.30  0.000072  (-0.003554  0.005927 -0.004933)
 41:   1122.56   0.000352    1.78  0.000098  (-0.004079  0.006692 -0.006039)
 42:   1170.29   0.001683    8.50  0.000449  ( 0.019889 -0.006747  0.002751)
 43:   1176.81   0.000594    3.00  0.000158  (-0.008217 -0.003568 -0.008791)
 44:   1216.32   0.007031   35.53  0.001804  (-0.039447  0.015510 -0.002713)
 45:   1243.15   0.000070    0.36  0.000018  ( 0.000049 -0.001158  0.004041)
 46:   1260.77   0.000898    4.54  0.000222  ( 0.009040 -0.011855  0.000033)
 47:   1296.07   0.000052    0.26  0.000012  ( 0.002020  0.001703 -0.002337)
 48:   1306.79   0.000707    3.57  0.000169  ( 0.011669  0.003964  0.004127)
 49:   1317.19   0.001153    5.83  0.000273  (-0.012090  0.011225  0.000991)
 50:   1351.06   0.000084    0.42  0.000019  (-0.002394  0.003270  0.001721)
 51:   1356.07   0.000384    1.94  0.000088  ( 0.008790 -0.002092  0.002590)
 52:   1362.12   0.000205    1.03  0.000047  ( 0.001591 -0.005701 -0.003442)
 53:   1371.43   0.000244    1.23  0.000055  (-0.004878  0.003016  0.004754)
 54:   1380.61   0.001795    9.07  0.000406  ( 0.015681 -0.009514  0.008320)
 55:   1409.67   0.000145    0.73  0.000032  (-0.004456  0.001996 -0.002859)
 56:   1440.63   0.001434    7.25  0.000311  (-0.015031  0.009011 -0.001850)
 57:   1443.47   0.002764   13.97  0.000597  (-0.004821  0.022825 -0.007297)
 58:   1449.52   0.002781   14.05  0.000599  ( 0.021121 -0.010923 -0.005764)
 59:   1458.59   0.002198   11.11  0.000470  (-0.007350  0.020375 -0.001001)
 60:   1468.42   0.000624    3.15  0.000133  (-0.009851  0.005802  0.001354)
 61:   1482.03   0.003212   16.23  0.000676  (-0.008244 -0.015116 -0.019491)
 62:   1510.36   0.000815    4.12  0.000168  (-0.006789  0.006908 -0.008637)
 63:   1515.18   0.000745    3.76  0.000153  ( 0.008838  0.001691 -0.008509)
 64:   1517.07   0.000049    0.25  0.000010  (-0.000237  0.002085  0.002372)
 65:   1519.17   0.000068    0.34  0.000014  (-0.001673  0.002215 -0.002497)
 66:   1524.13   0.000651    3.29  0.000133  ( 0.010706 -0.002865  0.003228)
 67:   1527.79   0.002152   10.87  0.000439  (-0.003859  0.012732  0.016201)
 68:   1529.80   0.002717   13.73  0.000554  ( 0.005246  0.014015  0.018174)
 69:   1533.43   0.000434    2.19  0.000088  ( 0.001180 -0.009322 -0.000149)
 70:   1537.53   0.005307   26.82  0.001077  (-0.031507  0.009157  0.000772)
 71:   1540.72   0.003188   16.11  0.000646  (-0.011378  0.015894 -0.016234)
 72:   1865.12   0.032507  164.28  0.005439  (-0.024798 -0.033880 -0.060631)
 73:   3074.74   0.000255    1.29  0.000026  (-0.002688  0.004156 -0.001196)
 74:   3076.75   0.000546    2.76  0.000055  ( 0.003310 -0.005758 -0.003358)
 75:   3080.30   0.007787   39.35  0.000789  (-0.009671  0.014833 -0.021802)
 76:   3088.12   0.004582   23.16  0.000463  (-0.019949 -0.001714 -0.007884)
 77:   3089.51   0.015354   77.59  0.001551  (-0.015195  0.026188 -0.025183)
 78:   3097.10   0.005905   29.84  0.000595  (-0.016765 -0.015449  0.008677)
 79:   3105.10   0.006432   32.50  0.000646  (-0.007196  0.023591 -0.006173)
 80:   3109.31   0.004058   20.51  0.000407  ( 0.000531 -0.011429  0.016626)
 81:   3114.25   0.000346    1.75  0.000035  (-0.002300  0.004583 -0.002891)
 82:   3121.83   0.003093   15.63  0.000309  (-0.012922 -0.011890  0.000934)
 83:   3126.85   0.000532    2.69  0.000053  ( 0.000885 -0.000253  0.007228)
 84:   3137.41   0.001282    6.48  0.000128  ( 0.001517  0.005711 -0.009622)
 85:   3140.84   0.002712   13.71  0.000269  ( 0.001166 -0.001313 -0.016322)
 86:   3148.00   0.009260   46.80  0.000918  (-0.007899  0.022360  0.018857)
 87:   3167.06   0.005820   29.41  0.000573  ( 0.003341 -0.012652 -0.020056)
 88:   3184.10   0.006539   33.05  0.000641  ( 0.004401 -0.015008 -0.019907)
 89:   3185.89   0.000221    1.12  0.000022  (-0.002840 -0.001940 -0.003134)
 90:   3189.39   0.004756   24.04  0.000465  (-0.019299  0.005322 -0.008038)
 91:   3202.65   0.003755   18.97  0.000366  (-0.014768  0.009920  0.007024)
 92:   3212.44   0.001897    9.58  0.000184  (-0.007099 -0.007276 -0.008995)

--------------------------
THERMOCHEMISTRY AT 298.15K
--------------------------

Temperature         ...   298.15 K
Pressure            ...     1.00 atm
Total Mass          ...   156.27 AMU
Quasi RRHO          ...     True
Cut-Off Frequency   ...     1.00 cm^-1

Throughout the following assumptions are being made:
  (1) The electronic state is orbitally nondegenerate
  (2) There are no thermally accessible electronically excited states
  (3) Hindered rotations indicated by low frequency modes are not
      treated as such but are treated as vibrations and this may
      cause some error
  (4) All equations used are the standard statistical mechanics
      equations for an ideal gas
  (5) All vibrations are strictly harmonic

freq.      26.00  E(vib)   ...       0.56
freq.      42.77  E(vib)   ...       0.53
freq.      45.19  E(vib)   ...       0.53
freq.      60.19  E(vib)   ...       0.51
freq.      93.19  E(vib)   ...       0.47
freq.     114.33  E(vib)   ...       0.44
freq.     131.45  E(vib)   ...       0.42
freq.     159.60  E(vib)   ...       0.39
freq.     211.71  E(vib)   ...       0.34
freq.     237.05  E(vib)   ...       0.32
freq.     249.18  E(vib)   ...       0.31
freq.     259.47  E(vib)   ...       0.30
freq.     272.13  E(vib)   ...       0.29
freq.     290.43  E(vib)   ...       0.27
freq.     409.62  E(vib)   ...       0.19
freq.     435.11  E(vib)   ...       0.17
freq.     509.32  E(vib)   ...       0.14
freq.     572.32  E(vib)   ...       0.11
freq.     626.33  E(vib)   ...       0.09
freq.     740.49  E(vib)   ...       0.06
freq.     749.21  E(vib)   ...       0.06
freq.     779.81  E(vib)   ...       0.05
freq.     820.91  E(vib)   ...       0.05
freq.     848.44  E(vib)   ...       0.04
freq.     890.26  E(vib)   ...       0.04
freq.     926.04  E(vib)   ...       0.03
freq.     935.38  E(vib)   ...       0.03
freq.     983.53  E(vib)   ...       0.02
freq.    1020.73  E(vib)   ...       0.02
freq.    1046.63  E(vib)   ...       0.02
freq.    1064.17  E(vib)   ...       0.02
freq.    1075.20  E(vib)   ...       0.02
freq.    1092.51  E(vib)   ...       0.02
freq.    1110.17  E(vib)   ...       0.02
freq.    1115.10  E(vib)   ...       0.01
freq.    1122.56  E(vib)   ...       0.01
freq.    1170.29  E(vib)   ...       0.01
freq.    1176.81  E(vib)   ...       0.01
freq.    1216.32  E(vib)   ...       0.01
freq.    1243.15  E(vib)   ...       0.01
freq.    1260.77  E(vib)   ...       0.01
freq.    1296.07  E(vib)   ...       0.01
freq.    1306.79  E(vib)   ...       0.01
freq.    1317.19  E(vib)   ...       0.01
freq.    1351.06  E(vib)   ...       0.01
freq.    1356.07  E(vib)   ...       0.01
freq.    1362.12  E(vib)   ...       0.01
freq.    1371.43  E(vib)   ...       0.01
freq.    1380.61  E(vib)   ...       0.01
freq.    1409.67  E(vib)   ...       0.00
freq.    1440.63  E(vib)   ...       0.00
freq.    1443.47  E(vib)   ...       0.00
freq.    1449.52  E(vib)   ...       0.00
freq.    1458.59  E(vib)   ...       0.00
freq.    1468.42  E(vib)   ...       0.00
freq.    1482.03  E(vib)   ...       0.00
freq.    1510.36  E(vib)   ...       0.00
freq.    1515.18  E(vib)   ...       0.00
freq.    1517.07  E(vib)   ...       0.00
freq.    1519.17  E(vib)   ...       0.00
freq.    1524.13  E(vib)   ...       0.00
freq.    1527.79  E(vib)   ...       0.00
freq.    1529.80  E(vib)   ...       0.00
freq.    1533.43  E(vib)   ...       0.00
freq.    1537.53  E(vib)   ...       0.00
freq.    1540.72  E(vib)   ...       0.00
freq.    1865.12  E(vib)   ...       0.00
freq.    3074.74  E(vib)   ...       0.00
freq.    3076.75  E(vib)   ...       0.00
freq.    3080.30  E(vib)   ...       0.00
freq.    3088.12  E(vib)   ...       0.00
freq.    3089.51  E(vib)   ...       0.00
freq.    3097.10  E(vib)   ...       0.00
freq.    3105.10  E(vib)   ...       0.00
freq.    3109.31  E(vib)   ...       0.00
freq.    3114.25  E(vib)   ...       0.00
freq.    3121.83  E(vib)   ...       0.00
freq.    3126.85  E(vib)   ...       0.00
freq.    3137.41  E(vib)   ...       0.00
freq.    3140.84  E(vib)   ...       0.00
freq.    3148.00  E(vib)   ...       0.00
freq.    3167.06  E(vib)   ...       0.00
freq.    3184.10  E(vib)   ...       0.00
freq.    3185.89  E(vib)   ...       0.00
freq.    3189.39  E(vib)   ...       0.00
freq.    3202.65  E(vib)   ...       0.00
freq.    3212.44  E(vib)   ...       0.00

------------
INNER ENERGY
------------

The inner energy is: U= E(el) + E(ZPE) + E(vib) + E(rot) + E(trans)
    E(el)   - is the total energy from the electronic structure calculation
              = E(kin-el) + E(nuc-el) + E(el-el) + E(nuc-nuc)
    E(ZPE)  - the the zero temperature vibrational energy from the frequency calculation
    E(vib)  - the the finite temperature correction to E(ZPE) due to population
              of excited vibrational states
    E(rot)  - is the rotational thermal energy
    E(trans)- is the translational thermal energy

Summary of contributions to the inner energy U:
Electronic energy                ...    -85.13391699 Eh
Zero point energy                ...      0.29114861 Eh     182.70 kcal/mol
Thermal vibrational correction   ...      0.01123303 Eh       7.05 kcal/mol
Thermal rotational correction    ...      0.00141627 Eh       0.89 kcal/mol
Thermal translational correction ...      0.00141627 Eh       0.89 kcal/mol
-----------------------------------------------------------------------
Total thermal energy                    -84.82870281 Eh

Summary of corrections to the electronic energy:
(perhaps to be used in another calculation)
Total thermal correction                  0.01406557 Eh       8.83 kcal/mol
Non-thermal (ZPE) correction              0.29114861 Eh     182.70 kcal/mol
-----------------------------------------------------------------------
Total correction                          0.30521418 Eh     191.52 kcal/mol

--------
ENTHALPY
--------

The enthalpy is H = U + kB*T
                kB is Boltzmann's constant
Total thermal energy              ...    -84.82870281 Eh
Thermal Enthalpy correction       ...      0.00094421 Eh       0.59 kcal/mol
-----------------------------------------------------------------------
Total Enthalpy                    ...    -84.82775860 Eh

Note: Only C1 symmetry has been detected, increase convergence thresholds
      if your molecule has a higher symmetry. Symmetry factor of 1.0 is
      used for the rotational entropy correction.

Note: Rotational entropy computed according to Herzberg
Infrared and Raman Spectra, Chapter V,1, Van Nostrand Reinhold, 1945
Point Group:  C1, Symmetry Number:   1
Rotational constants in cm-1:     0.074935     0.010911     0.010314

Vibrational entropy computed according to the QRRHO of S. Grimme

                             ****ORCA TERMINATED NORMALLY****
TOTAL RUN TIME: 0 days 0 hours 20 minutes 53 seconds 952 msec
