                         Program Version 6.0.1  -  RELEASE   -
|  1> ! wB97X-3c OPT FREQ TightSCF
|  2> %pal
|  3>   nprocs 40
|  4> end
|  5> * xyz 0 1
|  6> C      3.703430    -0.484233     0.243043
|  7> C      2.281139    -0.086065    -0.036662
|  8> C      1.772105     1.024702     0.528888
|  9> C      0.364133     1.472363     0.225703
| 10> C     -0.546993     0.294011    -0.060510
| 11> C     -0.030351    -0.818291    -0.629460
| 12> C      1.432452    -0.902518    -0.987558
| 13> C     -2.029329     0.402325     0.259697
| 14> C     -2.447409    -0.635828     1.307573
| 15> C     -2.885666     0.286117    -1.007380
| 16> H      3.982510    -1.394361    -0.328335
| 17> H      3.828002    -0.693895     1.326370
| 18> H      4.389535     0.338006    -0.051224
| 19> H      2.382806     1.629641     1.193729
| 20> H      0.384220     2.131933    -0.667411
| 21> H     -0.017257     2.060590     1.087184
| 22> H     -0.666109    -1.666968    -0.861675
| 23> H      1.570595    -0.509504    -2.016905
| 24> H      1.747485    -1.967577    -0.972584
| 25> H     -2.231438     1.405973     0.694863
| 26> H     -3.507622    -0.476408     1.598619
| 27> H     -1.818230    -0.532146     2.217460
| 28> H     -2.341049    -1.668548     0.912847
| 29> H     -3.952601     0.476253    -0.763038
| 30> H     -2.802903    -0.725905    -1.457170
| 31> H     -2.561458     1.040332    -1.756064
| 32> *
| 33>
| 34>                          ****END OF INPUT****
 Total Charge           Charge          ....    0
 Multiplicity           Mult            ....    1
 Number of Electrons    NEL             ....   56
Dispersion correction           -0.029697240
FINAL SINGLE POINT ENERGY       -66.594306811370
Dispersion correction             ... done (  0.1 sec)
Dispersion correction           -0.029896786
FINAL SINGLE POINT ENERGY       -66.601269483468
Dispersion correction             ... done (  0.1 sec)
Dispersion correction           -0.029909871
FINAL SINGLE POINT ENERGY       -66.602636968413
Dispersion correction             ... done (  0.1 sec)
FINAL SINGLE POINT ENERGY       -66.604225280282
FINAL SINGLE POINT ENERGY       -66.605135085783
FINAL SINGLE POINT ENERGY       -66.606349743795
FINAL SINGLE POINT ENERGY       -66.607735249190
FINAL SINGLE POINT ENERGY       -66.608846791119
FINAL SINGLE POINT ENERGY       -66.609990573610
FINAL SINGLE POINT ENERGY       -66.610878299387
FINAL SINGLE POINT ENERGY       -66.611280334410
FINAL SINGLE POINT ENERGY       -66.611503635952
FINAL SINGLE POINT ENERGY       -66.611576613713
FINAL SINGLE POINT ENERGY       -66.611593601472
Dispersion correction             ... done (  0.1 sec)
Dispersion correction           -0.029985530
FINAL SINGLE POINT ENERGY       -66.611598603902
Dispersion correction             ... done (  0.1 sec)
Dispersion correction           -0.029985957
FINAL SINGLE POINT ENERGY       -66.611600034093
Dispersion correction             ... done (  0.1 sec)
                    ***********************HURRAY********************

CARTESIAN COORDINATES (ANGSTROEM)
---------------------------------
  C      3.791286   -0.295920   -0.111828
  C      2.314939   -0.076683   -0.045932
  C      1.764971    0.860676    0.711243
  C      0.297012    1.110035    0.812103
  C     -0.544141    0.217234   -0.051186
  C      0.011280   -0.713627   -0.814374
  C      1.477923   -0.983583   -0.890429
  C     -2.032979    0.463803    0.015753
  C     -2.605051    0.008826    1.355474
  C     -2.821754   -0.157998   -1.122545
  H      4.156220   -0.177193   -1.133376
  H      4.046963   -1.309743    0.200874
  H      4.328998    0.402777    0.525610
  H      2.406180    1.499285    1.309401
  H      0.084429    2.152954    0.554459
  H     -0.010079    1.011606    1.856825
  H     -0.613372   -1.337312   -1.441111
  H      1.809818   -0.911677   -1.931620
  H      1.675720   -2.022935   -0.606696
  H     -2.168990    1.549150   -0.046223
  H     -3.670154    0.232782    1.413705
  H     -2.120983    0.497295    2.198826
  H     -2.479036   -1.067992    1.473493
  H     -3.865192    0.150919   -1.066945
  H     -2.803520   -1.247056   -1.072598
  H     -2.430488    0.144376   -2.092903

 Multiplicity           Mult            ....    1
 Number of Electrons    NEL             ....   56
 Basis Dimension        Dim             ....  210

ORBITAL ENERGIES
----------------

  NO   OCC          E(Eh)            E(eV)
   0   2.0000      -0.989840       -26.9349
   1   2.0000      -0.946124       -25.7453
   2   2.0000      -0.888672       -24.1820
   3   2.0000      -0.878800       -23.9134
   4   2.0000      -0.817706       -22.2509
   5   2.0000      -0.811378       -22.0787
   6   2.0000      -0.756180       -20.5767
   7   2.0000      -0.726548       -19.7704
   8   2.0000      -0.667082       -18.1522
   9   2.0000      -0.604226       -16.4418
  10   2.0000      -0.580766       -15.8035
  11   2.0000      -0.568969       -15.4824
  12   2.0000      -0.566103       -15.4045
  13   2.0000      -0.552484       -15.0338
  14   2.0000      -0.538752       -14.6602
  15   2.0000      -0.530775       -14.4431
  16   2.0000      -0.508174       -13.8281
  17   2.0000      -0.500870       -13.6294
  18   2.0000      -0.498136       -13.5550
  19   2.0000      -0.489921       -13.3314
  20   2.0000      -0.474300       -12.9064
  21   2.0000      -0.461411       -12.5556
  22   2.0000      -0.448280       -12.1983
  23   2.0000      -0.443968       -12.0810
  24   2.0000      -0.424064       -11.5394
  25   2.0000      -0.401785       -10.9331
  26   2.0000      -0.344708        -9.3800
  27   2.0000      -0.319946        -8.7062
  28   0.0000       0.085129         2.3165
  29   0.0000       0.092649         2.5211
  30   0.0000       0.101551         2.7633
  31   0.0000       0.104513         2.8439
  32   0.0000       0.108113         2.9419

MULLIKEN ATOMIC CHARGES
-----------------------
   0 C :   -0.055981
   1 C :   -0.052296
   2 C :   -0.011132
   3 C :   -0.072743
   4 C :   -0.029084
   5 C :   -0.013249
   6 C :   -0.073400
   7 C :   -0.112734
   8 C :   -0.035214
   9 C :   -0.049844
  10 H :    0.035616
  11 H :    0.035783
  12 H :    0.025358
  13 H :    0.010295
  14 H :    0.047925
  15 H :    0.048547
  16 H :    0.009510
  17 H :    0.044701
  18 H :    0.045482
  19 H :    0.031934
  20 H :    0.027088
  21 H :    0.020473
  22 H :    0.032260
  23 H :    0.027676
  24 H :    0.025970
  25 H :    0.037058
Sum of atomic charges:    0.0000000

LOEWDIN ATOMIC CHARGES
----------------------
   0 C :   -0.107877
   1 C :   -0.048918
   2 C :   -0.048802
   3 C :   -0.086080
   4 C :   -0.029513
   5 C :   -0.043664
   6 C :   -0.087516
   7 C :   -0.080291
   8 C :   -0.102828
   9 C :   -0.109481
  10 H :    0.048367
  11 H :    0.048421
  12 H :    0.049744
  13 H :    0.038497
  14 H :    0.053741
  15 H :    0.050689
  16 H :    0.038032
  17 H :    0.054037
  18 H :    0.053993
  19 H :    0.049201
  20 H :    0.043953
  21 H :    0.039458
  22 H :    0.044932
  23 H :    0.044658
  24 H :    0.041318
  25 H :    0.045930

  Mayer bond orders larger than 0.100000
B(  0-C ,  1-C ) :   1.0345 B(  0-C , 10-H ) :   0.9796 B(  0-C , 11-H ) :   0.9792
B(  0-C , 12-H ) :   0.9910 B(  1-C ,  2-C ) :   1.9022 B(  1-C ,  6-C ) :   1.0070
B(  2-C ,  3-C ) :   1.0388 B(  2-C , 13-H ) :   0.9873 B(  3-C ,  4-C ) :   1.0007
B(  3-C , 14-H ) :   0.9723 B(  3-C , 15-H ) :   0.9704 B(  4-C ,  5-C ) :   1.9156
B(  4-C ,  7-C ) :   1.0309 B(  5-C ,  6-C ) :   1.0340 B(  5-C , 16-H ) :   0.9864
B(  6-C , 17-H ) :   0.9728 B(  6-C , 18-H ) :   0.9713 B(  7-C ,  8-C ) :   0.9823
B(  7-C ,  9-C ) :   1.0039 B(  7-C , 19-H ) :   0.9867 B(  8-C , 20-H ) :   0.9950
B(  8-C , 21-H ) :   0.9972 B(  8-C , 22-H ) :   0.9889 B(  9-C , 23-H ) :   0.9938
B(  9-C , 24-H ) :   0.9901 B(  9-C , 25-H ) :   0.9926

Dispersion correction           -0.029986550
FINAL SINGLE POINT ENERGY       -66.611600872076

DIPOLE MOMENT
-------------

Method             : SCF
Type of density    : Electron Density
Multiplicity       :   1
Irrep              :   0
Energy             :   -66.5816143222206591 Eh
Relativity type    :
Basis              : AO
                                X                 Y                 Z
Electronic contribution:      4.740691173       1.253478066      -0.412057035
Nuclear contribution   :     -4.757980793      -1.245294141       0.407811630
                        -----------------------------------------
Total Dipole Moment    :     -0.017289620       0.008183925      -0.004245404
                        -----------------------------------------
Magnitude (a.u.)       :      0.019594159
Magnitude (Debye)      :      0.049804394

VIBRATIONAL FREQUENCIES
-----------------------

Scaling factor for frequencies =  1.000000000  (already applied!)

     0:       0.00 cm**-1
     1:       0.00 cm**-1
     2:       0.00 cm**-1
     3:       0.00 cm**-1
     4:       0.00 cm**-1
     5:       0.00 cm**-1
     6:      34.14 cm**-1
     7:      59.33 cm**-1
     8:     171.79 cm**-1
     9:     180.81 cm**-1
    10:     203.81 cm**-1
    11:     233.90 cm**-1
    12:     254.27 cm**-1
    13:     295.84 cm**-1
    14:     313.28 cm**-1
    15:     341.21 cm**-1
    16:     369.86 cm**-1
    17:     439.19 cm**-1
    18:     450.81 cm**-1
    19:     499.07 cm**-1
    20:     557.06 cm**-1
    21:     604.50 cm**-1
    22:     696.37 cm**-1
    23:     792.28 cm**-1
    24:     815.11 cm**-1
    25:     873.46 cm**-1
    26:     919.57 cm**-1
    27:     949.46 cm**-1
    28:     955.51 cm**-1
    29:     991.92 cm**-1
    30:     997.11 cm**-1
    31:    1002.95 cm**-1
    32:    1009.92 cm**-1
    33:    1063.34 cm**-1
    34:    1080.43 cm**-1
    35:    1095.20 cm**-1
    36:    1139.34 cm**-1
    37:    1157.85 cm**-1
    38:    1178.31 cm**-1
    39:    1219.19 cm**-1
    40:    1250.61 cm**-1
    41:    1265.53 cm**-1
    42:    1272.27 cm**-1
    43:    1355.72 cm**-1
    44:    1367.95 cm**-1
    45:    1371.12 cm**-1
    46:    1408.67 cm**-1
    47:    1436.05 cm**-1
    48:    1445.62 cm**-1
    49:    1448.43 cm**-1
    50:    1462.73 cm**-1
    51:    1477.90 cm**-1
    52:    1503.94 cm**-1
    53:    1505.72 cm**-1
    54:    1510.41 cm**-1
    55:    1518.18 cm**-1
    56:    1522.07 cm**-1
    57:    1523.66 cm**-1
    58:    1535.90 cm**-1
    59:    1543.81 cm**-1
    60:    1794.81 cm**-1
    61:    1835.44 cm**-1
    62:    3067.92 cm**-1
    63:    3070.34 cm**-1
    64:    3076.79 cm**-1
    65:    3094.08 cm**-1
    66:    3097.91 cm**-1
    67:    3100.80 cm**-1
    68:    3101.49 cm**-1
    69:    3115.38 cm**-1
    70:    3170.08 cm**-1
    71:    3184.16 cm**-1
    72:    3188.87 cm**-1
    73:    3195.98 cm**-1
    74:    3202.27 cm**-1
    75:    3204.37 cm**-1
    76:    3216.04 cm**-1
    77:    3241.29 cm**-1

IR SPECTRUM
-----------

 Mode   freq       eps      Int      T**2         TX        TY        TZ
       cm**-1   L/(mol*cm) km/mol    a.u.
----------------------------------------------------------------------------
  6:     34.14   0.000001    0.01  0.000009  ( 0.001550  0.001061 -0.002393)
  7:     59.33   0.000009    0.05  0.000048  (-0.001709  0.004340 -0.005130)
  8:    171.79   0.000662    3.34  0.001202  ( 0.003759  0.021674 -0.026799)
  9:    180.81   0.000178    0.90  0.000308  (-0.004136 -0.010080  0.013758)
 10:    203.81   0.000041    0.21  0.000063  (-0.002116  0.004617  0.006084)
 11:    233.90   0.000186    0.94  0.000248  ( 0.001677 -0.013562  0.007810)
 12:    254.27   0.000474    2.40  0.000582  (-0.001322 -0.014482  0.019244)
 13:    295.84   0.000012    0.06  0.000012  ( 0.001862  0.002108 -0.002127)
 14:    313.28   0.000003    0.02  0.000003  ( 0.001026 -0.001548  0.000121)
 15:    341.21   0.000047    0.24  0.000043  (-0.004607  0.003447  0.003166)
 16:    369.86   0.000027    0.14  0.000023  ( 0.002759  0.002500 -0.003007)
 17:    439.19   0.000010    0.05  0.000007  ( 0.000803  0.002020 -0.001506)
 18:    450.81   0.001079    5.45  0.000747  (-0.001852 -0.017726  0.020724)
 19:    499.07   0.000501    2.53  0.000313  (-0.001894 -0.010574  0.014065)
 20:    557.06   0.001113    5.63  0.000624  ( 0.004400  0.015298 -0.019241)
 21:    604.50   0.000019    0.10  0.000010  (-0.001399  0.000165  0.002797)
 22:    696.37   0.000116    0.59  0.000052  (-0.001396  0.000341  0.007073)
 23:    792.28   0.000033    0.17  0.000013  (-0.000542 -0.001867  0.003048)
 24:    815.11   0.002632   13.30  0.001008  ( 0.001054 -0.022253  0.022611)
 25:    873.46   0.000105    0.53  0.000038  (-0.001002  0.005314 -0.002882)
 26:    919.57   0.000117    0.59  0.000040  (-0.003563 -0.004931  0.001605)
 27:    949.46   0.000222    1.12  0.000073  (-0.003608  0.003925 -0.006684)
 28:    955.51   0.000377    1.91  0.000123  ( 0.004682 -0.005193 -0.008622)
 29:    991.92   0.000112    0.56  0.000035  ( 0.004448 -0.001549  0.003591)
 30:    997.11   0.002438   12.32  0.000763  ( 0.002592  0.021271 -0.017432)
 31:   1002.95   0.000906    4.58  0.000282  ( 0.000862 -0.001312  0.016715)
 32:   1009.92   0.001065    5.38  0.000329  (-0.002750 -0.013540  0.011754)
 33:   1063.34   0.002138   10.80  0.000627  (-0.019045  0.012770  0.010077)
 34:   1080.43   0.001272    6.43  0.000368  ( 0.008712  0.013370  0.010624)
 35:   1095.20   0.000044    0.22  0.000013  ( 0.000121 -0.002252  0.002756)
 36:   1139.34   0.000797    4.03  0.000218  ( 0.012402 -0.007568 -0.002674)
 37:   1157.85   0.000085    0.43  0.000023  ( 0.002785  0.002398  0.003081)
 38:   1178.31   0.000294    1.48  0.000078  ( 0.002005 -0.005963  0.006180)
 39:   1219.19   0.001218    6.16  0.000312  (-0.017645 -0.000635 -0.000276)
 40:   1250.61   0.000044    0.22  0.000011  (-0.003181 -0.000403  0.000870)
 41:   1265.53   0.000039    0.20  0.000010  ( 0.002652 -0.001632  0.000067)
 42:   1272.27   0.000187    0.94  0.000046  ( 0.005820 -0.003379  0.000692)
 43:   1355.72   0.000472    2.38  0.000109  (-0.009535  0.003693  0.002016)
 44:   1367.95   0.000070    0.35  0.000016  (-0.002098 -0.003273  0.000952)
 45:   1371.12   0.000094    0.47  0.000021  (-0.002275  0.001202  0.003832)
 46:   1408.67   0.000770    3.89  0.000171  (-0.011196 -0.000858  0.006669)
 47:   1436.05   0.002456   12.41  0.000534  ( 0.007156  0.001186  0.021934)
 48:   1445.62   0.000203    1.03  0.000044  ( 0.003572 -0.004917 -0.002629)
 49:   1448.43   0.002706   13.67  0.000583  (-0.019745 -0.013897 -0.000094)
 50:   1462.73   0.000049    0.25  0.000011  ( 0.001768 -0.001187 -0.002448)
 51:   1477.90   0.000599    3.03  0.000126  ( 0.009354  0.001177  0.006128)
 52:   1503.94   0.000029    0.15  0.000006  ( 0.002015 -0.000290  0.001400)
 53:   1505.72   0.001207    6.10  0.000250  ( 0.006156 -0.012009 -0.008253)
 54:   1510.41   0.002250   11.37  0.000465  (-0.001696 -0.013498  0.016731)
 55:   1518.18   0.000394    1.99  0.000081  (-0.001192 -0.001655  0.008762)
 56:   1522.07   0.000978    4.94  0.000201  (-0.000340  0.004434  0.013447)
 57:   1523.66   0.002218   11.21  0.000454  (-0.003538 -0.016804 -0.012625)
 58:   1535.90   0.002884   14.57  0.000586  (-0.001307  0.024168  0.000380)
 59:   1543.81   0.002268   11.46  0.000458  (-0.019876  0.007890 -0.001072)
 60:   1794.81   0.000472    2.38  0.000082  (-0.001508 -0.006683 -0.005921)
 61:   1835.44   0.000014    0.07  0.000002  ( 0.000438  0.001266  0.000795)
 62:   3067.92   0.008849   44.72  0.000900  (-0.012979  0.021683  0.016172)
 63:   3070.34   0.001101    5.56  0.000112  (-0.004620 -0.006690  0.006768)
 64:   3076.79   0.012536   63.35  0.001271  (-0.012605  0.031369  0.011339)
 65:   3094.08   0.009194   46.46  0.000927  (-0.027903  0.010441  0.006303)
 66:   3097.91   0.005267   26.62  0.000531  ( 0.005508  0.004071  0.021992)
 67:   3100.80   0.002457   12.41  0.000247  ( 0.000876 -0.008883  0.012944)
 68:   3101.49   0.005635   28.48  0.000567  (-0.021034 -0.006799  0.008852)
 69:   3115.38   0.003711   18.76  0.000372  ( 0.006523  0.007300 -0.016611)
 70:   3170.08   0.002357   11.91  0.000232  ( 0.001169  0.009848 -0.011560)
 71:   3184.16   0.000963    4.87  0.000094  ( 0.005633 -0.007616  0.002161)
 72:   3188.87   0.007568   38.25  0.000741  (-0.020431  0.017945 -0.001086)
 73:   3195.98   0.003540   17.89  0.000346  (-0.010804 -0.007418  0.013186)
 74:   3202.27   0.003692   18.66  0.000360  ( 0.010664  0.011337  0.010840)
 75:   3204.37   0.001805    9.12  0.000176  ( 0.004827  0.009179  0.008262)
 76:   3216.04   0.005738   29.00  0.000557  (-0.015904 -0.012777 -0.011857)
 77:   3241.29   0.002490   12.58  0.000240  ( 0.009477  0.008879  0.008432)

--------------------------
THERMOCHEMISTRY AT 298.15K
--------------------------

Temperature         ...   298.15 K
Pressure            ...     1.00 atm
Total Mass          ...   136.24 AMU
Quasi RRHO          ...     True
Cut-Off Frequency   ...     1.00 cm^-1

Throughout the following assumptions are being made:
  (1) The electronic state is orbitally nondegenerate
  (2) There are no thermally accessible electronically excited states
  (3) Hindered rotations indicated by low frequency modes are not
      treated as such but are treated as vibrations and this may
      cause some error
  (4) All equations used are the standard statistical mechanics
      equations for an ideal gas
  (5) All vibrations are strictly harmonic

freq.      34.14  E(vib)   ...       0.55
freq.      59.33  E(vib)   ...       0.51
freq.     171.79  E(vib)   ...       0.38
freq.     180.81  E(vib)   ...       0.37
freq.     203.81  E(vib)   ...       0.35
freq.     233.90  E(vib)   ...       0.32
freq.     254.27  E(vib)   ...       0.30
freq.     295.84  E(vib)   ...       0.27
freq.     313.28  E(vib)   ...       0.25
freq.     341.21  E(vib)   ...       0.23
freq.     369.86  E(vib)   ...       0.21
freq.     439.19  E(vib)   ...       0.17
freq.     450.81  E(vib)   ...       0.17
freq.     499.07  E(vib)   ...       0.14
freq.     557.06  E(vib)   ...       0.12
freq.     604.50  E(vib)   ...       0.10
freq.     696.37  E(vib)   ...       0.07
freq.     792.28  E(vib)   ...       0.05
freq.     815.11  E(vib)   ...       0.05
freq.     873.46  E(vib)   ...       0.04
freq.     919.57  E(vib)   ...       0.03
freq.     949.46  E(vib)   ...       0.03
freq.     955.51  E(vib)   ...       0.03
freq.     991.92  E(vib)   ...       0.02
freq.     997.11  E(vib)   ...       0.02
freq.    1002.95  E(vib)   ...       0.02
freq.    1009.92  E(vib)   ...       0.02
freq.    1063.34  E(vib)   ...       0.02
freq.    1080.43  E(vib)   ...       0.02
freq.    1095.20  E(vib)   ...       0.02
freq.    1139.34  E(vib)   ...       0.01
freq.    1157.85  E(vib)   ...       0.01
freq.    1178.31  E(vib)   ...       0.01
freq.    1219.19  E(vib)   ...       0.01
freq.    1250.61  E(vib)   ...       0.01
freq.    1265.53  E(vib)   ...       0.01
freq.    1272.27  E(vib)   ...       0.01
freq.    1355.72  E(vib)   ...       0.01
freq.    1367.95  E(vib)   ...       0.01
freq.    1371.12  E(vib)   ...       0.01
freq.    1408.67  E(vib)   ...       0.00
freq.    1436.05  E(vib)   ...       0.00
freq.    1445.62  E(vib)   ...       0.00
freq.    1448.43  E(vib)   ...       0.00
freq.    1462.73  E(vib)   ...       0.00
freq.    1477.90  E(vib)   ...       0.00
freq.    1503.94  E(vib)   ...       0.00
freq.    1505.72  E(vib)   ...       0.00
freq.    1510.41  E(vib)   ...       0.00
freq.    1518.18  E(vib)   ...       0.00
freq.    1522.07  E(vib)   ...       0.00
freq.    1523.66  E(vib)   ...       0.00
freq.    1535.90  E(vib)   ...       0.00
freq.    1543.81  E(vib)   ...       0.00
freq.    1794.81  E(vib)   ...       0.00
freq.    1835.44  E(vib)   ...       0.00
freq.    3067.92  E(vib)   ...       0.00
freq.    3070.34  E(vib)   ...       0.00
freq.    3076.79  E(vib)   ...       0.00
freq.    3094.08  E(vib)   ...       0.00
freq.    3097.91  E(vib)   ...       0.00
freq.    3100.80  E(vib)   ...       0.00
freq.    3101.49  E(vib)   ...       0.00
freq.    3115.38  E(vib)   ...       0.00
freq.    3170.08  E(vib)   ...       0.00
freq.    3184.16  E(vib)   ...       0.00
freq.    3188.87  E(vib)   ...       0.00
freq.    3195.98  E(vib)   ...       0.00
freq.    3202.27  E(vib)   ...       0.00
freq.    3204.37  E(vib)   ...       0.00
freq.    3216.04  E(vib)   ...       0.00
freq.    3241.29  E(vib)   ...       0.00

------------
INNER ENERGY
------------

The inner energy is: U= E(el) + E(ZPE) + E(vib) + E(rot) + E(trans)
    E(el)   - is the total energy from the electronic structure calculation
              = E(kin-el) + E(nuc-el) + E(el-el) + E(nuc-nuc)
    E(ZPE)  - the the zero temperature vibrational energy from the frequency calculation
    E(vib)  - the the finite temperature correction to E(ZPE) due to population
              of excited vibrational states
    E(rot)  - is the rotational thermal energy
    E(trans)- is the translational thermal energy

Summary of contributions to the inner energy U:
Electronic energy                ...    -66.61160087 Eh
Zero point energy                ...      0.24064403 Eh     151.01 kcal/mol
Thermal vibrational correction   ...      0.00798190 Eh       5.01 kcal/mol
Thermal rotational correction    ...      0.00141627 Eh       0.89 kcal/mol
Thermal translational correction ...      0.00141627 Eh       0.89 kcal/mol
-----------------------------------------------------------------------
Total thermal energy                    -66.36014240 Eh

Summary of corrections to the electronic energy:
(perhaps to be used in another calculation)
Total thermal correction                  0.01081444 Eh       6.79 kcal/mol
Non-thermal (ZPE) correction              0.24064403 Eh     151.01 kcal/mol
-----------------------------------------------------------------------
Total correction                          0.25145847 Eh     157.79 kcal/mol

--------
ENTHALPY
--------

The enthalpy is H = U + kB*T
                kB is Boltzmann's constant
Total thermal energy              ...    -66.36014240 Eh
Thermal Enthalpy correction       ...      0.00094421 Eh       0.59 kcal/mol
-----------------------------------------------------------------------
Total Enthalpy                    ...    -66.35919819 Eh

Note: Only C1 symmetry has been detected, increase convergence thresholds
      if your molecule has a higher symmetry. Symmetry factor of 1.0 is
      used for the rotational entropy correction.

Note: Rotational entropy computed according to Herzberg
Infrared and Raman Spectra, Chapter V,1, Van Nostrand Reinhold, 1945
Point Group:  C1, Symmetry Number:   1
Rotational constants in cm-1:     0.102364     0.024595     0.021406

Vibrational entropy computed according to the QRRHO of S. Grimme
Chem.Eur.J. 2012 18 9955 using a reference frequency of 100.0 cm-1

-------
ENTROPY
-------

The entropy contributions are T*S = T*(S(el)+S(vib)+S(rot)+S(trans))
     S(el)   - electronic entropy
     S(vib)  - vibrational entropy
     S(rot)  - rotational entropy
     S(trans)- translational entropy
The entropies will be listed as multiplied by the temperature to get
units of energy

                             ****ORCA TERMINATED NORMALLY****
TOTAL RUN TIME: 0 days 0 hours 19 minutes 6 seconds 781 msec
