                         Program Version 6.0.1  -  RELEASE   -
|  1> ! wB97X-3c OPT FREQ TightSCF
|  2> %pal
|  3>   nprocs 40
|  4> end
|  5> * xyz 0 1
|  6> C      3.443664     1.244358    -0.509609
|  7> C      2.517833     0.024044    -0.394582
|  8> C      2.852651    -0.824786     0.830845
|  9> C      1.584250    -1.607801     1.115417
| 10> C      0.451662    -0.613584     0.820460
| 11> C      0.988888     0.319100    -0.286950
| 12> C      0.609421     1.805546     0.011163
| 13> C     -0.914040     2.010337     0.206919
| 14> C     -1.785213     1.182426    -0.784271
| 15> C     -1.202056    -0.279932    -0.973674
| 16> C      0.215351    -0.112615    -1.533651
| 17> C     -0.929643    -1.157621     0.306783
| 18> C     -2.001176    -1.071217     1.418747
| 19> C     -0.899257    -2.654940    -0.119440
| 20> C     -3.265940     1.190889    -0.334153
| 21> O     -1.738702     1.854398    -2.025418
| 22> H      4.495926     0.904795    -0.616743
| 23> H      3.183024     1.837058    -1.411410
| 24> H      3.381016     1.890168     0.390878
| 25> H      2.716742    -0.607158    -1.290295
| 26> H      3.086173    -0.178286     1.706628
| 27> H      3.712240    -1.502930     0.636216
| 28> H      1.553006    -1.958468     2.169707
| 29> H      1.582170    -2.485490     0.439380
| 30> H      0.314816    -0.029135     1.759393
| 31> H      0.940476     2.450423    -0.831662
| 32> H      1.129059     2.157039     0.928548
| 33> H     -1.146066     3.091618     0.087278
| 34> H     -1.166905     1.774185     1.257564
| 35> H     -1.834114    -0.827829    -1.708334
| 36> H      0.301000     0.627426    -2.358447
| 37> H      0.591233    -1.072661    -1.945494
| 38> H     -3.012673    -1.268685     1.004937
| 39> H     -1.802581    -1.835300     2.201300
| 40> H     -1.995469    -0.106531     1.953732
| 41> H     -1.901584    -2.969690    -0.483092
| 42> H     -0.182243    -2.859020    -0.938362
| 43> H     -0.635742    -3.308471     0.740161
| 44> H     -3.737696     2.158392    -0.611336
| 45> H     -3.393684     1.098773     0.759660
| 46> H     -3.833518     0.380637    -0.839148
| 47> H     -2.272301     1.330535    -2.680089
| 48> *
| 49>
| 50>                          ****END OF INPUT****
 Total Charge           Charge          ....    0
 Multiplicity           Mult            ....    1
 Number of Electrons    NEL             ....   92
Dispersion correction           -0.060793152
FINAL SINGLE POINT ENERGY      -117.235085170145
Dispersion correction             ... done (  0.1 sec)
Dispersion correction           -0.061937556
FINAL SINGLE POINT ENERGY      -117.249771418282
Dispersion correction             ... done (  0.1 sec)
Dispersion correction           -0.062126721
FINAL SINGLE POINT ENERGY      -117.251596912689
Dispersion correction             ... done (  0.1 sec)
FINAL SINGLE POINT ENERGY      -117.252320706559
FINAL SINGLE POINT ENERGY      -117.252481154351
FINAL SINGLE POINT ENERGY      -117.252611766023
FINAL SINGLE POINT ENERGY      -117.252637821728
Dispersion correction             ... done (  0.1 sec)
Dispersion correction           -0.062138575
FINAL SINGLE POINT ENERGY      -117.252653027715
Dispersion correction             ... done (  0.0 sec)
Dispersion correction           -0.062137282
FINAL SINGLE POINT ENERGY      -117.252655409430
Dispersion correction             ... done (  0.0 sec)
                    ***********************HURRAY********************

CARTESIAN COORDINATES (ANGSTROEM)
---------------------------------
  C      3.419930    1.205926   -0.615084
  C      2.505074    0.024798   -0.362580
  C      2.799305   -0.723523    0.934576
  C      1.565310   -1.589545    1.126510
  C      0.430381   -0.620044    0.813517
  C      0.985942    0.309521   -0.296122
  C      0.614170    1.764333   -0.015058
  C     -0.880865    1.936924    0.234368
  C     -1.757689    1.166501   -0.742397
  C     -1.209898   -0.264055   -0.951274
  C      0.199320   -0.135774   -1.523577
  C     -0.942607   -1.148580    0.308436
  C     -1.975567   -1.112695    1.428880
  C     -0.889731   -2.605927   -0.156097
  C     -3.222007    1.217326   -0.339690
  O     -1.650331    1.875192   -1.981739
  H      4.456710    0.873557   -0.673406
  H      3.182846    1.706709   -1.553488
  H      3.358461    1.945250    0.182848
  H      2.658776   -0.685373   -1.181063
  H      2.892501   -0.012098    1.760835
  H      3.728654   -1.292924    0.891513
  H      1.490855   -2.026466    2.122647
  H      1.595765   -2.413263    0.412409
  H      0.264140   -0.032966    1.719705
  H      0.912630    2.382987   -0.862349
  H      1.157360    2.135448    0.856490
  H     -1.152178    2.991456    0.173845
  H     -1.123473    1.614026    1.245160
  H     -1.893956   -0.782953   -1.631522
  H      0.265450    0.570686   -2.347330
  H      0.562343   -1.097319   -1.883629
  H     -2.966403   -1.397670    1.075122
  H     -1.687783   -1.828600    2.200246
  H     -2.048796   -0.141698    1.910600
  H     -1.879539   -2.920730   -0.488820
  H     -0.199345   -2.771895   -0.979381
  H     -0.594166   -3.264113    0.660320
  H     -3.554722    2.254265   -0.356047
  H     -3.410734    0.812855    0.648030
  H     -3.830831    0.656717   -1.051591
  H     -2.175304    1.423730   -2.644254

 Multiplicity           Mult            ....    1
 Number of Electrons    NEL             ....   92
 Basis Dimension        Dim             ....  338

ORBITAL ENERGIES
----------------

  NO   OCC          E(Eh)            E(eV)
   0   2.0000      -1.144513       -31.1438
   1   2.0000      -1.020565       -27.7710
   2   2.0000      -0.956372       -26.0242
   3   2.0000      -0.931227       -25.3400
   4   2.0000      -0.891970       -24.2717
   5   2.0000      -0.875754       -23.8305
   6   2.0000      -0.869201       -23.6522
   7   2.0000      -0.822739       -22.3879
   8   2.0000      -0.811356       -22.0781
   9   2.0000      -0.790696       -21.5159
  10   2.0000      -0.750339       -20.4178
  11   2.0000      -0.748962       -20.3803
  12   2.0000      -0.714240       -19.4355
  13   2.0000      -0.684950       -18.6384
  14   2.0000      -0.661610       -18.0033
  15   2.0000      -0.636894       -17.3308
  16   2.0000      -0.618345       -16.8260
  17   2.0000      -0.598469       -16.2852
  18   2.0000      -0.580084       -15.7849
  19   2.0000      -0.569257       -15.4903
  20   2.0000      -0.561172       -15.2703
  21   2.0000      -0.555045       -15.1035
  22   2.0000      -0.542773       -14.7696
  23   2.0000      -0.532693       -14.4953
  24   2.0000      -0.527383       -14.3508
  25   2.0000      -0.515954       -14.0398
  26   2.0000      -0.513701       -13.9785
  27   2.0000      -0.506641       -13.7864
  28   2.0000      -0.498065       -13.5530
  29   2.0000      -0.493255       -13.4222
  30   2.0000      -0.483306       -13.1514
  31   2.0000      -0.474327       -12.9071
  32   2.0000      -0.467940       -12.7333
  33   2.0000      -0.462784       -12.5930
  34   2.0000      -0.460980       -12.5439
  35   2.0000      -0.444164       -12.0863
  36   2.0000      -0.440984       -11.9998
  37   2.0000      -0.425412       -11.5760
  38   2.0000      -0.421892       -11.4803
  39   2.0000      -0.419460       -11.4141
  40   2.0000      -0.406714       -11.0672
  41   2.0000      -0.403117       -10.9694
  42   2.0000      -0.391169       -10.6442
  43   2.0000      -0.384627       -10.4662
  44   2.0000      -0.379625       -10.3301
  45   2.0000      -0.368210       -10.0195
  46   0.0000       0.082481         2.2444
  47   0.0000       0.092981         2.5301
  48   0.0000       0.094882         2.5819
  49   0.0000       0.098630         2.6839
  50   0.0000       0.113569         3.0904

MULLIKEN ATOMIC CHARGES
-----------------------
   0 C :   -0.035703
   1 C :   -0.049199
   2 C :   -0.019288
   3 C :   -0.021343
   4 C :   -0.004129
   5 C :   -0.195633
   6 C :    0.020779
   7 C :    0.021645
   8 C :   -0.061117
   9 C :   -0.011424
  10 C :    0.066503
  11 C :   -0.183656
  12 C :   -0.002259
  13 C :   -0.005274
  14 C :   -0.000602
  15 O :   -0.292262
  16 H :    0.025945
  17 H :    0.027398
  18 H :    0.020330
  19 H :    0.025521
  20 H :    0.018995
  21 H :    0.030100
  22 H :    0.031331
  23 H :    0.020738
  24 H :    0.019691
  25 H :    0.037550
  26 H :    0.026891
  27 H :    0.040643
  28 H :    0.015852
  29 H :    0.016386
  30 H :    0.039777
  31 H :    0.008376
  32 H :    0.027978
  33 H :    0.026273
  34 H :    0.016813
  35 H :    0.026429
  36 H :    0.019025
  37 H :    0.028339
  38 H :    0.036608
  39 H :    0.020114
  40 H :    0.019494
  41 H :    0.146364
Sum of atomic charges:   -0.0000000

LOEWDIN ATOMIC CHARGES
----------------------
   0 C :   -0.110543
   1 C :   -0.060069
   2 C :   -0.071750
   3 C :   -0.073321
   4 C :   -0.030711
   5 C :   -0.039070
   6 C :   -0.068498
   7 C :   -0.063108
   8 C :   -0.038500
   9 C :   -0.041006
  10 C :   -0.060161
  11 C :   -0.047102
  12 C :   -0.108937
  13 C :   -0.105128
  14 C :   -0.100143
  15 O :   -0.058102
  16 H :    0.044804
  17 H :    0.043839
  18 H :    0.040489
  19 H :    0.044145
  20 H :    0.041734
  21 H :    0.040325
  22 H :    0.039306
  23 H :    0.040711
  24 H :    0.041174
  25 H :    0.047825
  26 H :    0.042770
  27 H :    0.052812
  28 H :    0.039148
  29 H :    0.037195
  30 H :    0.041270
  31 H :    0.035336
  32 H :    0.042960
  33 H :    0.047180
  34 H :    0.033232
  35 H :    0.043844
  36 H :    0.037293
  37 H :    0.044929
  38 H :    0.049871
  39 H :    0.040051
  40 H :    0.040431
  41 H :    0.023476

  Mayer bond orders larger than 0.100000
B(  0-C ,  1-C ) :   1.0195 B(  0-C , 16-H ) :   0.9903 B(  0-C , 17-H ) :   0.9916
B(  0-C , 18-H ) :   0.9895 B(  1-C ,  2-C ) :   0.9765 B(  1-C ,  5-C ) :   1.0057
B(  1-C , 19-H ) :   0.9938 B(  2-C ,  3-C ) :   1.0021 B(  2-C , 20-H ) :   0.9929
B(  2-C , 21-H ) :   1.0020 B(  3-C ,  4-C ) :   0.9942 B(  3-C , 22-H ) :   0.9996
B(  3-C , 23-H ) :   0.9905 B(  4-C ,  5-C ) :   0.9798 B(  4-C , 11-C ) :   0.9840
B(  4-C , 24-H ) :   0.9967 B(  5-C ,  6-C ) :   1.0003 B(  5-C , 10-C ) :   0.9807
B(  6-C ,  7-C ) :   0.9962 B(  6-C , 25-H ) :   0.9901 B(  6-C , 26-H ) :   0.9944
B(  7-C ,  8-C ) :   0.9848 B(  7-C , 27-H ) :   0.9901 B(  7-C , 28-H ) :   0.9881
B(  8-C ,  9-C ) :   0.9814 B(  8-C , 14-C ) :   1.0326 B(  8-C , 15-O ) :   0.9948
B(  9-C , 10-C ) :   0.9971 B(  9-C , 11-C ) :   0.9748 B(  9-C , 29-H ) :   0.9937
B( 10-C , 30-H ) :   0.9895 B( 10-C , 31-H ) :   0.9969 B( 11-C , 12-C ) :   1.0157
B( 11-C , 13-C ) :   1.0148 B( 12-C , 32-H ) :   0.9902 B( 12-C , 33-H ) :   0.9891
B( 12-C , 34-H ) :   0.9937 B( 13-C , 35-H ) :   0.9906 B( 13-C , 36-H ) :   0.9936
B( 13-C , 37-H ) :   0.9904 B( 14-C , 38-H ) :   0.9864 B( 14-C , 39-H ) :   0.9854
B( 14-C , 40-H ) :   0.9848 B( 15-O , 41-H ) :   1.0589

Dispersion correction           -0.062136766
FINAL SINGLE POINT ENERGY      -117.252656104951

DIPOLE MOMENT
-------------

Method             : SCF
Type of density    : Electron Density
Multiplicity       :   1
Irrep              :   0
Energy             :  -117.1905193391776407 Eh
Relativity type    :
Basis              : AO
                                X                 Y                 Z
Electronic contribution:      0.814187698       2.063089859      -2.719091634
Nuclear contribution   :     -1.064615678      -2.573708890       2.831478857
                        -----------------------------------------
Total Dipole Moment    :     -0.250427980      -0.510619031       0.112387223
                        -----------------------------------------
Magnitude (a.u.)       :      0.579721361
Magnitude (Debye)      :      1.473534595

VIBRATIONAL FREQUENCIES
-----------------------

Scaling factor for frequencies =  1.000000000  (already applied!)

     0:       0.00 cm**-1
     1:       0.00 cm**-1
     2:       0.00 cm**-1
     3:       0.00 cm**-1
     4:       0.00 cm**-1
     5:       0.00 cm**-1
     6:      72.71 cm**-1
     7:     129.36 cm**-1
     8:     194.54 cm**-1
     9:     198.33 cm**-1
    10:     204.28 cm**-1
    11:     219.82 cm**-1
    12:     253.61 cm**-1
    13:     259.83 cm**-1
    14:     266.10 cm**-1
    15:     274.23 cm**-1
    16:     287.44 cm**-1
    17:     299.75 cm**-1
    18:     304.00 cm**-1
    19:     327.20 cm**-1
    20:     346.84 cm**-1
    21:     356.00 cm**-1
    22:     369.84 cm**-1
    23:     386.47 cm**-1
    24:     427.21 cm**-1
    25:     453.34 cm**-1
    26:     476.48 cm**-1
    27:     496.73 cm**-1
    28:     514.38 cm**-1
    29:     550.10 cm**-1
    30:     568.28 cm**-1
    31:     582.47 cm**-1
    32:     593.65 cm**-1
    33:     616.33 cm**-1
    34:     670.72 cm**-1
    35:     755.62 cm**-1
    36:     782.64 cm**-1
    37:     830.06 cm**-1
    38:     868.13 cm**-1
    39:     903.62 cm**-1
    40:     915.45 cm**-1
    41:     945.01 cm**-1
    42:     952.17 cm**-1
    43:     959.31 cm**-1
    44:     967.85 cm**-1
    45:     980.59 cm**-1
    46:     982.35 cm**-1
    47:    1002.66 cm**-1
    48:    1015.89 cm**-1
    49:    1019.69 cm**-1
    50:    1028.91 cm**-1
    51:    1041.15 cm**-1
    52:    1055.93 cm**-1
    53:    1073.25 cm**-1
    54:    1077.64 cm**-1
    55:    1107.30 cm**-1
    56:    1122.97 cm**-1
    57:    1140.29 cm**-1
    58:    1152.20 cm**-1
    59:    1169.00 cm**-1
    60:    1193.62 cm**-1
    61:    1195.49 cm**-1
    62:    1213.96 cm**-1
    63:    1217.46 cm**-1
    64:    1239.99 cm**-1
    65:    1251.78 cm**-1
    66:    1261.44 cm**-1
    67:    1270.28 cm**-1
    68:    1282.23 cm**-1
    69:    1304.49 cm**-1
    70:    1322.00 cm**-1
    71:    1330.30 cm**-1
    72:    1346.41 cm**-1
    73:    1352.30 cm**-1
    74:    1359.60 cm**-1
    75:    1376.63 cm**-1
    76:    1382.73 cm**-1
    77:    1388.35 cm**-1
    78:    1403.64 cm**-1
    79:    1414.85 cm**-1
    80:    1424.18 cm**-1
    81:    1427.04 cm**-1
    82:    1438.48 cm**-1
    83:    1443.67 cm**-1
    84:    1451.47 cm**-1
    85:    1455.52 cm**-1
    86:    1461.52 cm**-1
    87:    1506.61 cm**-1
    88:    1513.45 cm**-1
    89:    1517.12 cm**-1
    90:    1518.59 cm**-1
    91:    1524.41 cm**-1
    92:    1525.26 cm**-1
    93:    1529.79 cm**-1
    94:    1530.90 cm**-1
    95:    1533.39 cm**-1
    96:    1536.76 cm**-1
    97:    1541.85 cm**-1
    98:    1550.50 cm**-1
    99:    1553.61 cm**-1
   100:    3074.43 cm**-1
   101:    3075.00 cm**-1
   102:    3088.17 cm**-1
   103:    3095.27 cm**-1
   104:    3096.09 cm**-1
   105:    3096.19 cm**-1
   106:    3101.05 cm**-1
   107:    3101.73 cm**-1
   108:    3102.92 cm**-1
   109:    3114.60 cm**-1
   110:    3125.68 cm**-1
   111:    3134.88 cm**-1
   112:    3154.27 cm**-1
   113:    3155.33 cm**-1
   114:    3171.27 cm**-1
   115:    3174.11 cm**-1
   116:    3181.41 cm**-1
   117:    3182.22 cm**-1
   118:    3183.06 cm**-1
   119:    3185.67 cm**-1
   120:    3192.71 cm**-1
   121:    3194.09 cm**-1
   122:    3208.66 cm**-1
   123:    3211.81 cm**-1
   124:    3249.70 cm**-1
   125:    3942.96 cm**-1

IR SPECTRUM
-----------

 Mode   freq       eps      Int      T**2         TX        TY        TZ
       cm**-1   L/(mol*cm) km/mol    a.u.
----------------------------------------------------------------------------
  6:     72.71   0.000000    0.00  0.000001  ( 0.000896 -0.000550 -0.000242)
  7:    129.36   0.000206    1.04  0.000496  (-0.011781  0.005709 -0.018024)
  8:    194.54   0.000036    0.18  0.000058  (-0.001284  0.007526  0.000383)
  9:    198.33   0.000166    0.84  0.000262  ( 0.014069 -0.007979  0.000037)
 10:    204.28   0.000006    0.03  0.000009  (-0.002488 -0.001093 -0.001071)
 11:    219.82   0.000142    0.72  0.000202  (-0.007463  0.002329 -0.011852)
 12:    253.61   0.001434    7.25  0.001765  (-0.034717  0.022671  0.006731)
 13:    259.83   0.004763   24.07  0.005720  (-0.062848  0.040053  0.012887)
 14:    266.10   0.003989   20.16  0.004678  ( 0.056133 -0.037934 -0.009377)
 15:    274.23   0.011054   55.86  0.012579  ( 0.093149 -0.062089 -0.006899)
 16:    287.44   0.000143    0.72  0.000156  ( 0.011900 -0.002891 -0.002404)
 17:    299.75   0.000579    2.93  0.000603  (-0.022273  0.009916  0.002901)
 18:    304.00   0.000707    3.57  0.000726  (-0.020751  0.016590  0.004460)
 19:    327.20   0.000776    3.92  0.000740  (-0.021298  0.015518  0.006786)
 20:    346.84   0.000315    1.59  0.000284  (-0.013467  0.009730  0.002784)
 21:    356.00   0.000047    0.24  0.000041  (-0.004864 -0.001433  0.003941)
 22:    369.84   0.001369    6.92  0.001155  ( 0.022449 -0.025192 -0.004048)
 23:    386.47   0.000439    2.22  0.000355  (-0.013773  0.009133 -0.009029)
 24:    427.21   0.000072    0.36  0.000053  ( 0.001509  0.000295  0.007089)
 25:    453.34   0.000082    0.41  0.000057  ( 0.000916 -0.000917  0.007406)
 26:    476.48   0.001637    8.27  0.001072  (-0.024862  0.018188 -0.011111)
 27:    496.73   0.000410    2.07  0.000258  ( 0.012273 -0.006641 -0.007946)
 28:    514.38   0.001167    5.90  0.000708  ( 0.003290 -0.006926  0.025477)
 29:    550.10   0.000352    1.78  0.000200  (-0.003742  0.013536 -0.001549)
 30:    568.28   0.000558    2.82  0.000306  (-0.016648  0.005122 -0.001674)
 31:    582.47   0.000137    0.69  0.000073  ( 0.000052 -0.007197  0.004621)
 32:    593.65   0.000099    0.50  0.000052  ( 0.001928 -0.001617 -0.006770)
 33:    616.33   0.000087    0.44  0.000044  (-0.002984 -0.000072  0.005909)
 34:    670.72   0.000187    0.94  0.000087  (-0.008698  0.001721  0.002875)
 35:    755.62   0.000040    0.20  0.000016  ( 0.000779  0.003938 -0.000466)
 36:    782.64   0.000125    0.63  0.000050  (-0.000669  0.001790 -0.006800)
 37:    830.06   0.000018    0.09  0.000007  ( 0.001834  0.001797  0.000095)
 38:    868.13   0.000045    0.23  0.000016  ( 0.002490 -0.003176  0.000123)
 39:    903.62   0.000239    1.21  0.000083  (-0.000252  0.007781 -0.004690)
 40:    915.45   0.000058    0.29  0.000020  (-0.002991  0.001664 -0.002843)
 41:    945.01   0.000699    3.53  0.000231  ( 0.002132 -0.002994 -0.014745)
 42:    952.17   0.002568   12.98  0.000842  (-0.008177 -0.012860  0.024683)
 43:    959.31   0.000730    3.69  0.000237  (-0.002852  0.002928 -0.014858)
 44:    967.85   0.001378    6.96  0.000444  (-0.001637  0.009270 -0.018859)
 45:    980.59   0.000243    1.23  0.000077  (-0.001486  0.005026 -0.007064)
 46:    982.35   0.000230    1.16  0.000073  (-0.003882  0.005778  0.004963)
 47:   1002.66   0.000271    1.37  0.000084  ( 0.002808  0.001791  0.008563)
 48:   1015.89   0.000264    1.33  0.000081  ( 0.006686 -0.004990 -0.003388)
 49:   1019.69   0.001703    8.61  0.000521  (-0.007291  0.008741 -0.019788)
 50:   1028.91   0.000324    1.64  0.000098  (-0.005379 -0.005414  0.006327)
 51:   1041.15   0.001575    7.96  0.000472  ( 0.006503 -0.015880  0.013328)
 52:   1055.93   0.000385    1.95  0.000114  (-0.002006 -0.009802 -0.003702)
 53:   1073.25   0.000175    0.88  0.000051  ( 0.005805  0.003744 -0.001771)
 54:   1077.64   0.001090    5.51  0.000316  (-0.007236  0.014692 -0.006897)
 55:   1107.30   0.003697   18.68  0.001042  ( 0.000579 -0.018315  0.026574)
 56:   1122.97   0.000343    1.73  0.000095  (-0.007187  0.006592 -0.000441)
 57:   1140.29   0.011881   60.04  0.003252  (-0.015349  0.030284 -0.045813)
 58:   1152.20   0.000324    1.64  0.000088  (-0.006687  0.005398 -0.003740)
 59:   1169.00   0.000595    3.01  0.000159  ( 0.003382 -0.012026  0.001684)
 60:   1193.62   0.000270    1.37  0.000071  ( 0.008132  0.000960 -0.001905)
 61:   1195.49   0.000951    4.81  0.000248  ( 0.014301 -0.006537 -0.000972)
 62:   1213.96   0.002190   11.07  0.000563  ( 0.015083 -0.018224 -0.001821)
 63:   1217.46   0.004927   24.90  0.001263  ( 0.007122  0.020510 -0.028135)
 64:   1239.99   0.000702    3.55  0.000177  ( 0.002313  0.007702 -0.010579)
 65:   1251.78   0.003297   16.66  0.000822  (-0.001080 -0.011855  0.026083)
 66:   1261.44   0.000206    1.04  0.000051  (-0.005848 -0.003895  0.001234)
 67:   1270.28   0.000490    2.48  0.000120  (-0.010440 -0.003284  0.000755)
 68:   1282.23   0.000099    0.50  0.000024  ( 0.001389  0.004131  0.002262)
 69:   1304.49   0.002906   14.69  0.000695  (-0.000095 -0.010047  0.024378)
 70:   1322.00   0.000060    0.30  0.000014  ( 0.000414  0.001942  0.003191)
 71:   1330.30   0.000468    2.37  0.000110  (-0.010324 -0.001221 -0.001311)
 72:   1346.41   0.000620    3.13  0.000144  (-0.007045 -0.007510  0.006132)
 73:   1352.30   0.000532    2.69  0.000123  ( 0.009288 -0.005928  0.001210)
 74:   1359.60   0.001140    5.76  0.000262  ( 0.006201  0.012559 -0.008084)
 75:   1376.63   0.004317   21.82  0.000979  (-0.000440  0.022795 -0.021421)
 76:   1382.73   0.000948    4.79  0.000214  ( 0.010107 -0.006069  0.008659)
 77:   1388.35   0.000566    2.86  0.000127  ( 0.005278  0.008656 -0.004934)
 78:   1403.64   0.000342    1.73  0.000076  ( 0.004575  0.005434 -0.005047)
 79:   1414.85   0.000499    2.52  0.000110  ( 0.003480 -0.003769  0.009154)
 80:   1424.18   0.000253    1.28  0.000055  ( 0.004572  0.005252  0.002620)
 81:   1427.04   0.000395    2.00  0.000086  (-0.004080 -0.000051 -0.008354)
 82:   1438.48   0.001794    9.07  0.000389  (-0.009202  0.012488  0.012190)
 83:   1443.67   0.003770   19.05  0.000815  ( 0.025860 -0.010472 -0.006042)
 84:   1451.47   0.001203    6.08  0.000259  ( 0.009581  0.012852 -0.001321)
 85:   1455.52   0.002421   12.24  0.000519  ( 0.013987  0.017174 -0.005338)
 86:   1461.52   0.002800   14.15  0.000598  ( 0.015521  0.015312 -0.011069)
 87:   1506.61   0.000583    2.95  0.000121  (-0.010151 -0.003509  0.002326)
 88:   1513.45   0.000550    2.78  0.000113  (-0.009483 -0.004554 -0.001660)
 89:   1517.12   0.000278    1.40  0.000057  ( 0.001582  0.004893 -0.005538)
 90:   1518.59   0.000331    1.67  0.000068  (-0.005901 -0.005441  0.001909)
 91:   1524.41   0.002475   12.51  0.000507  ( 0.011622  0.012445  0.014718)
 92:   1525.26   0.000935    4.72  0.000191  ( 0.006528 -0.012037 -0.001938)
 93:   1529.79   0.002068   10.45  0.000422  ( 0.000652  0.008942  0.018480)
 94:   1530.90   0.003637   18.38  0.000741  ( 0.008292 -0.015183 -0.021027)
 95:   1533.39   0.000517    2.61  0.000105  ( 0.005686 -0.002679 -0.008101)
 96:   1536.76   0.001297    6.55  0.000263  ( 0.006456 -0.013315  0.006662)
 97:   1541.85   0.000609    3.08  0.000123  (-0.001330  0.009713  0.005216)
 98:   1550.50   0.003015   15.24  0.000607  (-0.008209 -0.002886  0.023048)
 99:   1553.61   0.002384   12.05  0.000479  (-0.017189  0.002955 -0.013213)
100:   3074.43   0.003506   17.72  0.000356  (-0.000966  0.013539  0.013101)
101:   3075.00   0.007436   37.58  0.000755  ( 0.022409  0.005332  0.014968)
102:   3088.17   0.006282   31.75  0.000635  ( 0.017139  0.006647  0.017230)
103:   3095.27   0.001361    6.88  0.000137  (-0.007861 -0.008102  0.003125)
104:   3096.09   0.002698   13.63  0.000272  (-0.003513  0.005297  0.015215)
105:   3096.19   0.004782   24.16  0.000482  (-0.005125  0.012547  0.017270)
106:   3101.05   0.018192   91.94  0.001831  ( 0.033448  0.026655 -0.001226)
107:   3101.73   0.002545   12.86  0.000256  (-0.003172  0.011652 -0.010497)
108:   3102.92   0.008643   43.68  0.000869  ( 0.028755  0.006272  0.001759)
109:   3114.60   0.006693   33.82  0.000671  (-0.000719 -0.023500  0.010856)
110:   3125.68   0.008538   43.15  0.000852  ( 0.010707 -0.021891 -0.016080)
111:   3134.88   0.005704   28.83  0.000568  (-0.004102  0.015809  0.017351)
112:   3154.27   0.006821   34.47  0.000675  ( 0.019491 -0.016078  0.006036)
113:   3155.33   0.001636    8.27  0.000162  (-0.005225  0.006329  0.009717)
114:   3171.27   0.004537   22.93  0.000446  ( 0.006208 -0.007964 -0.018561)
115:   3174.11   0.003584   18.11  0.000352  (-0.009248  0.005433 -0.015406)
116:   3181.41   0.001725    8.72  0.000169  (-0.011162  0.004138  0.005242)
117:   3182.22   0.009705   49.05  0.000952  ( 0.024155 -0.014882  0.012116)
118:   3183.06   0.002463   12.45  0.000241  (-0.006272 -0.010338  0.009759)
119:   3185.67   0.003432   17.34  0.000336  ( 0.000966  0.016349  0.008243)
120:   3192.71   0.004271   21.58  0.000417  ( 0.001282 -0.007497 -0.018962)
121:   3194.09   0.004877   24.65  0.000477  (-0.001703 -0.014263  0.016438)
122:   3208.66   0.004096   20.70  0.000398  (-0.011843  0.004575  0.015401)
123:   3211.81   0.004144   20.94  0.000403  ( 0.003904  0.017787  0.008429)
124:   3249.70   0.001692    8.55  0.000162  ( 0.002591  0.001615 -0.012374)
125:   3942.96   0.006581   33.26  0.000521  (-0.010941 -0.003070 -0.019792)

--------------------------
THERMOCHEMISTRY AT 298.15K
--------------------------

Temperature         ...   298.15 K
Pressure            ...     1.00 atm
Total Mass          ...   222.37 AMU
Quasi RRHO          ...     True
Cut-Off Frequency   ...     1.00 cm^-1

Throughout the following assumptions are being made:
  (1) The electronic state is orbitally nondegenerate
  (2) There are no thermally accessible electronically excited states
  (3) Hindered rotations indicated by low frequency modes are not
      treated as such but are treated as vibrations and this may
      cause some error
  (4) All equations used are the standard statistical mechanics
      equations for an ideal gas
  (5) All vibrations are strictly harmonic

freq.      72.71  E(vib)   ...       0.49
freq.     129.36  E(vib)   ...       0.43
freq.     194.54  E(vib)   ...       0.36
freq.     198.33  E(vib)   ...       0.35
freq.     204.28  E(vib)   ...       0.35
freq.     219.82  E(vib)   ...       0.33
freq.     253.61  E(vib)   ...       0.30
freq.     259.83  E(vib)   ...       0.30
freq.     266.10  E(vib)   ...       0.29
freq.     274.23  E(vib)   ...       0.28
freq.     287.44  E(vib)   ...       0.27
freq.     299.75  E(vib)   ...       0.26
freq.     304.00  E(vib)   ...       0.26
freq.     327.20  E(vib)   ...       0.24
freq.     346.84  E(vib)   ...       0.23
freq.     356.00  E(vib)   ...       0.22
freq.     369.84  E(vib)   ...       0.21
freq.     386.47  E(vib)   ...       0.20
freq.     427.21  E(vib)   ...       0.18
freq.     453.34  E(vib)   ...       0.16
freq.     476.48  E(vib)   ...       0.15
freq.     496.73  E(vib)   ...       0.14
freq.     514.38  E(vib)   ...       0.13
freq.     550.10  E(vib)   ...       0.12
freq.     568.28  E(vib)   ...       0.11
freq.     582.47  E(vib)   ...       0.11
freq.     593.65  E(vib)   ...       0.10
freq.     616.33  E(vib)   ...       0.09
freq.     670.72  E(vib)   ...       0.08
freq.     755.62  E(vib)   ...       0.06
freq.     782.64  E(vib)   ...       0.05
freq.     830.06  E(vib)   ...       0.04
freq.     868.13  E(vib)   ...       0.04
freq.     903.62  E(vib)   ...       0.03
freq.     915.45  E(vib)   ...       0.03
freq.     945.01  E(vib)   ...       0.03
freq.     952.17  E(vib)   ...       0.03
freq.     959.31  E(vib)   ...       0.03
freq.     967.85  E(vib)   ...       0.03
freq.     980.59  E(vib)   ...       0.02
freq.     982.35  E(vib)   ...       0.02
freq.    1002.66  E(vib)   ...       0.02
freq.    1015.89  E(vib)   ...       0.02
freq.    1019.69  E(vib)   ...       0.02
freq.    1028.91  E(vib)   ...       0.02
freq.    1041.15  E(vib)   ...       0.02
freq.    1055.93  E(vib)   ...       0.02
freq.    1073.25  E(vib)   ...       0.02
freq.    1077.64  E(vib)   ...       0.02
freq.    1107.30  E(vib)   ...       0.02
freq.    1122.97  E(vib)   ...       0.01
freq.    1140.29  E(vib)   ...       0.01
freq.    1152.20  E(vib)   ...       0.01
freq.    1169.00  E(vib)   ...       0.01
freq.    1193.62  E(vib)   ...       0.01
freq.    1195.49  E(vib)   ...       0.01
freq.    1213.96  E(vib)   ...       0.01
freq.    1217.46  E(vib)   ...       0.01
freq.    1239.99  E(vib)   ...       0.01
freq.    1251.78  E(vib)   ...       0.01
freq.    1261.44  E(vib)   ...       0.01
freq.    1270.28  E(vib)   ...       0.01
freq.    1282.23  E(vib)   ...       0.01
freq.    1304.49  E(vib)   ...       0.01
freq.    1322.00  E(vib)   ...       0.01
freq.    1330.30  E(vib)   ...       0.01
freq.    1346.41  E(vib)   ...       0.01
freq.    1352.30  E(vib)   ...       0.01
freq.    1359.60  E(vib)   ...       0.01
freq.    1376.63  E(vib)   ...       0.01
freq.    1382.73  E(vib)   ...       0.01
freq.    1388.35  E(vib)   ...       0.00
freq.    1403.64  E(vib)   ...       0.00
freq.    1414.85  E(vib)   ...       0.00
freq.    1424.18  E(vib)   ...       0.00
freq.    1427.04  E(vib)   ...       0.00
freq.    1438.48  E(vib)   ...       0.00
freq.    1443.67  E(vib)   ...       0.00
freq.    1451.47  E(vib)   ...       0.00
freq.    1455.52  E(vib)   ...       0.00
freq.    1461.52  E(vib)   ...       0.00
freq.    1506.61  E(vib)   ...       0.00
freq.    1513.45  E(vib)   ...       0.00
freq.    1517.12  E(vib)   ...       0.00
freq.    1518.59  E(vib)   ...       0.00
freq.    1524.41  E(vib)   ...       0.00
freq.    1525.26  E(vib)   ...       0.00
freq.    1529.79  E(vib)   ...       0.00
freq.    1530.90  E(vib)   ...       0.00
freq.    1533.39  E(vib)   ...       0.00
freq.    1536.76  E(vib)   ...       0.00
freq.    1541.85  E(vib)   ...       0.00
freq.    1550.50  E(vib)   ...       0.00
freq.    1553.61  E(vib)   ...       0.00
freq.    3074.43  E(vib)   ...       0.00
freq.    3075.00  E(vib)   ...       0.00
freq.    3088.17  E(vib)   ...       0.00
freq.    3095.27  E(vib)   ...       0.00
freq.    3096.09  E(vib)   ...       0.00
freq.    3096.19  E(vib)   ...       0.00
freq.    3101.05  E(vib)   ...       0.00
freq.    3101.73  E(vib)   ...       0.00
freq.    3102.92  E(vib)   ...       0.00
freq.    3114.60  E(vib)   ...       0.00
freq.    3125.68  E(vib)   ...       0.00
freq.    3134.88  E(vib)   ...       0.00
freq.    3154.27  E(vib)   ...       0.00
freq.    3155.33  E(vib)   ...       0.00
freq.    3171.27  E(vib)   ...       0.00
freq.    3174.11  E(vib)   ...       0.00
freq.    3181.41  E(vib)   ...       0.00
freq.    3182.22  E(vib)   ...       0.00
freq.    3183.06  E(vib)   ...       0.00
freq.    3185.67  E(vib)   ...       0.00
freq.    3192.71  E(vib)   ...       0.00
freq.    3194.09  E(vib)   ...       0.00
freq.    3208.66  E(vib)   ...       0.00
freq.    3211.81  E(vib)   ...       0.00
freq.    3249.70  E(vib)   ...       0.00
freq.    3942.96  E(vib)   ...       0.00

------------
INNER ENERGY
------------

The inner energy is: U= E(el) + E(ZPE) + E(vib) + E(rot) + E(trans)
    E(el)   - is the total energy from the electronic structure calculation
              = E(kin-el) + E(nuc-el) + E(el-el) + E(nuc-nuc)
    E(ZPE)  - the the zero temperature vibrational energy from the frequency calculation
    E(vib)  - the the finite temperature correction to E(ZPE) due to population
              of excited vibrational states
    E(rot)  - is the rotational thermal energy
    E(trans)- is the translational thermal energy

Summary of contributions to the inner energy U:
Electronic energy                ...   -117.25265610 Eh
Zero point energy                ...      0.39693582 Eh     249.08 kcal/mol
Thermal vibrational correction   ...      0.01215793 Eh       7.63 kcal/mol
Thermal rotational correction    ...      0.00141627 Eh       0.89 kcal/mol
Thermal translational correction ...      0.00141627 Eh       0.89 kcal/mol
-----------------------------------------------------------------------
Total thermal energy                   -116.84072982 Eh

Rotational constants in cm-1:     0.026836     0.017183     0.012906

                             ****ORCA TERMINATED NORMALLY****
TOTAL RUN TIME: 0 days 0 hours 28 minutes 6 seconds 373 msec
