                         Program Version 6.0.1  -  RELEASE   -
|  1> ! wB97X-3c OPT FREQ TightSCF
|  2> %pal
|  3>   nprocs 40
|  4> end
|  5> * xyz 0 1
|  6> C      3.704323     0.063085    -0.218348
|  7> C      2.189716    -0.017445    -0.440564
|  8> C      1.587388    -1.207133     0.317783
|  9> C      0.092628    -1.388039    -0.010726
| 10> C     -0.642289    -0.071889    -0.405564
| 11> C     -0.005813     1.143233     0.321443
| 12> C      1.498917     1.301838    -0.023405
| 13> O     -0.172789     0.997993     1.710239
| 14> C     -2.184134    -0.190987    -0.163277
| 15> C     -2.939336     1.096330    -0.542206
| 16> C     -2.785834    -1.368518    -0.953156
| 17> H      4.125239     0.927165    -0.775469
| 18> H      4.195064    -0.861757    -0.589778
| 19> H      3.937477     0.182863     0.861610
| 20> H      2.020519    -0.178910    -1.529403
| 21> H      1.708906    -1.045033     1.412144
| 22> H      2.130544    -2.142126     0.057058
| 23> H      0.004266    -2.108248    -0.853607
| 24> H     -0.395853    -1.852515     0.874075
| 25> H     -0.487859     0.086972    -1.497537
| 26> H     -0.507433     2.077400    -0.017291
| 27> H      1.604652     2.024753    -0.862482
| 28> H      2.022447     1.753399     0.848681
| 29> H     -0.075479     1.901808     2.109647
| 30> H     -2.367121    -0.381831     0.917543
| 31> H     -2.656047     1.431914    -1.562817
| 32> H     -2.728423     1.905261     0.187083
| 33> H     -4.037612     0.930253    -0.515722
| 34> H     -3.886495    -1.413107    -0.808380
| 35> H     -2.376565    -2.336522    -0.597892
| 36> H     -2.573006    -1.260207    -2.038360
| 37> *
| 38>
| 39>                          ****END OF INPUT****
 Total Charge           Charge          ....    0
 Multiplicity           Mult            ....    1
 Number of Electrons    NEL             ....   66
Dispersion correction           -0.035635243
FINAL SINGLE POINT ENERGY       -85.123282049834
Dispersion correction             ... done (  0.1 sec)
Dispersion correction           -0.036366287
FINAL SINGLE POINT ENERGY       -85.133712199081
Dispersion correction             ... done (  0.1 sec)
Dispersion correction           -0.036447248
FINAL SINGLE POINT ENERGY       -85.134338893967
Dispersion correction             ... done (  0.1 sec)
FINAL SINGLE POINT ENERGY       -85.134540467108
FINAL SINGLE POINT ENERGY       -85.134605566944
FINAL SINGLE POINT ENERGY       -85.134678254749
FINAL SINGLE POINT ENERGY       -85.134719548450
FINAL SINGLE POINT ENERGY       -85.134740475388
Dispersion correction             ... done (  0.1 sec)
Dispersion correction           -0.036451593
FINAL SINGLE POINT ENERGY       -85.134746752035
Dispersion correction             ... done (  0.1 sec)
Dispersion correction           -0.036452866
FINAL SINGLE POINT ENERGY       -85.134748313872
Dispersion correction             ... done (  0.1 sec)
                    ***********************HURRAY********************

CARTESIAN COORDINATES (ANGSTROEM)
---------------------------------
  C      3.658483    0.077570   -0.230590
  C      2.159524   -0.032421   -0.432311
  C      1.547539   -1.165537    0.370227
  C      0.077729   -1.367521    0.010664
  C     -0.646664   -0.074044   -0.392961
  C     -0.017946    1.120227    0.305129
  C      1.454226    1.277269   -0.082364
  O     -0.191555    0.927306    1.702856
  C     -2.160351   -0.184675   -0.179209
  C     -2.900552    1.097327   -0.528500
  C     -2.738456   -1.342544   -0.980233
  H      4.074460    0.918218   -0.787147
  H      4.169178   -0.827162   -0.560571
  H      3.894471    0.227458    0.824491
  H      1.979449   -0.242895   -1.492001
  H      1.641243   -0.932234    1.432415
  H      2.101602   -2.090210    0.200067
  H      0.004651   -2.079203   -0.812421
  H     -0.440447   -1.819031    0.857640
  H     -0.483620    0.096235   -1.464069
  H     -0.542554    2.031648    0.009686
  H      1.528664    1.969613   -0.923534
  H      1.974090    1.758394    0.751565
  H      0.165079    1.681863    2.170768
  H     -2.320834   -0.386946    0.882888
  H     -2.674540    1.417738   -1.548083
  H     -2.652217    1.913095    0.147273
  H     -3.977695    0.943331   -0.465398
  H     -3.815143   -1.416020   -0.828162
  H     -2.302366   -2.298488   -0.697647
  H     -2.565450   -1.198358   -2.049146

 Multiplicity           Mult            ....    1
 Number of Electrons    NEL             ....   66
 Basis Dimension        Dim             ....  243

ORBITAL ENERGIES
----------------

  NO   OCC          E(Eh)            E(eV)
   0   2.0000      -1.145112       -31.1601
   1   2.0000      -0.979008       -26.6402
   2   2.0000      -0.942062       -25.6348
   3   2.0000      -0.880768       -23.9669
   4   2.0000      -0.870449       -23.6861
   5   2.0000      -0.812947       -22.1214
   6   2.0000      -0.808105       -21.9896
   7   2.0000      -0.741514       -20.1776
   8   2.0000      -0.727845       -19.8057
   9   2.0000      -0.690152       -18.7800
  10   2.0000      -0.660929       -17.9848
  11   2.0000      -0.633482       -17.2379
  12   2.0000      -0.588789       -16.0218
  13   2.0000      -0.573947       -15.6179
  14   2.0000      -0.569661       -15.5013
  15   2.0000      -0.547616       -14.9014
  16   2.0000      -0.534816       -14.5531
  17   2.0000      -0.521364       -14.1870
  18   2.0000      -0.511769       -13.9259
  19   2.0000      -0.506802       -13.7908
  20   2.0000      -0.495165       -13.4741
  21   2.0000      -0.488440       -13.2911
  22   2.0000      -0.476470       -12.9654
  23   2.0000      -0.464974       -12.6526
  24   2.0000      -0.454669       -12.3722
  25   2.0000      -0.447356       -12.1732
  26   2.0000      -0.440424       -11.9846
  27   2.0000      -0.434552       -11.8248
  28   2.0000      -0.421535       -11.4705
  29   2.0000      -0.407968       -11.1014
  30   2.0000      -0.403518       -10.9803
  31   2.0000      -0.385448       -10.4886
  32   2.0000      -0.368690       -10.0326
  33   0.0000       0.080629         2.1940
  34   0.0000       0.089225         2.4279
  35   0.0000       0.100133         2.7248
  36   0.0000       0.104164         2.8344
  37   0.0000       0.114767         3.1230

MULLIKEN ATOMIC CHARGES
-----------------------
   0 C :   -0.046335
   1 C :   -0.092326
   2 C :   -0.016503
   3 C :   -0.026734
   4 C :   -0.070313
   5 C :    0.045428
   6 C :   -0.007087
   7 O :   -0.293146
   8 C :   -0.075525
   9 C :   -0.046807
  10 C :   -0.039158
  11 H :    0.025796
  12 H :    0.027151
  13 H :    0.025501
  14 H :    0.026568
  15 H :    0.033217
  16 H :    0.024952
  17 H :    0.032353
  18 H :    0.037636
  19 H :    0.030572
  20 H :    0.019125
  21 H :    0.035815
  22 H :    0.010942
  23 H :    0.147924
  24 H :    0.044228
  25 H :    0.022521
  26 H :    0.027540
  27 H :    0.025412
  28 H :    0.026228
  29 H :    0.023591
  30 H :    0.021431
Sum of atomic charges:    0.0000000

LOEWDIN ATOMIC CHARGES
----------------------
   0 C :   -0.110204
   1 C :   -0.080230
   2 C :   -0.074441
   3 C :   -0.068918
   4 C :   -0.056127
   5 C :   -0.035785
   6 C :   -0.070525
   7 O :   -0.060262
   8 C :   -0.072529
   9 C :   -0.109747
  10 C :   -0.108191
  11 H :    0.043429
  12 H :    0.043853
  13 H :    0.042421
  14 H :    0.043445
  15 H :    0.043481
  16 H :    0.043216
  17 H :    0.041061
  18 H :    0.047475
  19 H :    0.047373
  20 H :    0.038891
  21 H :    0.047004
  22 H :    0.042439
  23 H :    0.022960
  24 H :    0.047990
  25 H :    0.040361
  26 H :    0.040479
  27 H :    0.044518
  28 H :    0.043375
  29 H :    0.041870
  30 H :    0.041319

  Mayer bond orders larger than 0.100000
B(  0-C ,  1-C ) :   1.0185 B(  0-C , 11-H ) :   0.9926 B(  0-C , 12-H ) :   0.9939
B(  0-C , 13-H ) :   0.9902 B(  1-C ,  2-C ) :   0.9706 B(  1-C ,  6-C ) :   0.9749
B(  1-C , 14-H ) :   0.9947 B(  2-C ,  3-C ) :   1.0046 B(  2-C , 15-H ) :   0.9892
B(  2-C , 16-H ) :   1.0006 B(  3-C ,  4-C ) :   0.9779 B(  3-C , 17-H ) :   0.9967
B(  3-C , 18-H ) :   0.9947 B(  4-C ,  5-C ) :   1.0003 B(  4-C ,  8-C ) :   0.9887
B(  4-C , 19-H ) :   0.9898 B(  5-C ,  6-C ) :   1.0066 B(  5-C ,  7-O ) :   0.9748
B(  5-C , 20-H ) :   1.0110 B(  6-C , 21-H ) :   0.9958 B(  6-C , 22-H ) :   0.9884
B(  7-O , 23-H ) :   1.0609 B(  8-C ,  9-C ) :   1.0015 B(  8-C , 10-C ) :   0.9990
B(  8-C , 24-H ) :   0.9870 B(  9-C , 25-H ) :   0.9890 B(  9-C , 26-H ) :   0.9951
B(  9-C , 27-H ) :   0.9950 B( 10-C , 28-H ) :   0.9964 B( 10-C , 29-H ) :   0.9949
B( 10-C , 30-H ) :   0.9894

Dispersion correction           -0.036452014
FINAL SINGLE POINT ENERGY       -85.134748659148

DIPOLE MOMENT
-------------

Method             : SCF
Type of density    : Electron Density
Multiplicity       :   1
Irrep              :   0
Energy             :   -85.0982966451606302 Eh
Relativity type    :
Basis              : AO
                                X                 Y                 Z
Electronic contribution:      1.143299359       0.923796331       2.616609617
Nuclear contribution   :     -0.867442093      -0.483174968      -2.819836987
                        -----------------------------------------
Total Dipole Moment    :      0.275857267       0.440621362      -0.203227370
                        -----------------------------------------
Magnitude (a.u.)       :      0.558162862
Magnitude (Debye)      :      1.418737246

VIBRATIONAL FREQUENCIES
-----------------------

Scaling factor for frequencies =  1.000000000  (already applied!)

     0:       0.00 cm**-1
     1:       0.00 cm**-1
     2:       0.00 cm**-1
     3:       0.00 cm**-1
     4:       0.00 cm**-1
     5:       0.00 cm**-1
     6:      56.28 cm**-1
     7:      83.32 cm**-1
     8:     122.52 cm**-1
     9:     171.38 cm**-1
    10:     202.41 cm**-1
    11:     231.50 cm**-1
    12:     243.07 cm**-1
    13:     257.11 cm**-1
    14:     263.63 cm**-1
    15:     269.97 cm**-1
    16:     319.16 cm**-1
    17:     322.45 cm**-1
    18:     366.18 cm**-1
    19:     408.46 cm**-1
    20:     423.28 cm**-1
    21:     451.55 cm**-1
    22:     458.78 cm**-1
    23:     541.69 cm**-1
    24:     606.19 cm**-1
    25:     724.48 cm**-1
    26:     792.31 cm**-1
    27:     833.54 cm**-1
    28:     892.14 cm**-1
    29:     903.14 cm**-1
    30:     936.18 cm**-1
    31:     941.36 cm**-1
    32:     952.99 cm**-1
    33:     990.14 cm**-1
    34:     995.09 cm**-1
    35:    1005.05 cm**-1
    36:    1030.36 cm**-1
    37:    1076.49 cm**-1
    38:    1088.30 cm**-1
    39:    1135.66 cm**-1
    40:    1138.73 cm**-1
    41:    1157.14 cm**-1
    42:    1175.72 cm**-1
    43:    1192.38 cm**-1
    44:    1219.48 cm**-1
    45:    1224.99 cm**-1
    46:    1228.86 cm**-1
    47:    1262.00 cm**-1
    48:    1297.73 cm**-1
    49:    1313.30 cm**-1
    50:    1334.50 cm**-1
    51:    1358.96 cm**-1
    52:    1371.66 cm**-1
    53:    1377.60 cm**-1
    54:    1387.61 cm**-1
    55:    1402.56 cm**-1
    56:    1415.58 cm**-1
    57:    1431.25 cm**-1
    58:    1435.64 cm**-1
    59:    1441.71 cm**-1
    60:    1442.32 cm**-1
    61:    1451.48 cm**-1
    62:    1454.94 cm**-1
    63:    1474.40 cm**-1
    64:    1507.04 cm**-1
    65:    1513.37 cm**-1
    66:    1514.91 cm**-1
    67:    1526.55 cm**-1
    68:    1526.80 cm**-1
    69:    1529.63 cm**-1
    70:    1533.78 cm**-1
    71:    1537.46 cm**-1
    72:    1548.33 cm**-1
    73:    3060.00 cm**-1
    74:    3071.23 cm**-1
    75:    3079.85 cm**-1
    76:    3089.22 cm**-1
    77:    3090.06 cm**-1
    78:    3093.51 cm**-1
    79:    3098.86 cm**-1
    80:    3100.86 cm**-1
    81:    3108.49 cm**-1
    82:    3111.09 cm**-1
    83:    3141.60 cm**-1
    84:    3149.09 cm**-1
    85:    3166.39 cm**-1
    86:    3173.11 cm**-1
    87:    3177.28 cm**-1
    88:    3178.18 cm**-1
    89:    3183.81 cm**-1
    90:    3198.08 cm**-1
    91:    3200.90 cm**-1
    92:    3967.26 cm**-1

IR SPECTRUM
-----------

 Mode   freq       eps      Int      T**2         TX        TY        TZ
       cm**-1   L/(mol*cm) km/mol    a.u.
----------------------------------------------------------------------------
  6:     56.28   0.000035    0.18  0.000193  ( 0.008822 -0.007715 -0.007470)
  7:     83.32   0.000016    0.08  0.000059  ( 0.000480  0.004035  0.006499)
  8:    122.52   0.000247    1.25  0.000629  ( 0.023180 -0.008385  0.004665)
  9:    171.38   0.000023    0.12  0.000042  ( 0.000811 -0.004753 -0.004286)
 10:    202.41   0.000201    1.01  0.000309  ( 0.006964 -0.008553 -0.013705)
 11:    231.50   0.000308    1.56  0.000415  ( 0.013738 -0.002138  0.014892)
 12:    243.07   0.000009    0.05  0.000012  (-0.000175  0.001683  0.002979)
 13:    257.11   0.000019    0.10  0.000024  ( 0.001429 -0.000179  0.004637)
 14:    263.63   0.003629   18.34  0.004296  ( 0.058136 -0.025859  0.015734)
 15:    269.97   0.020383  103.01  0.023561  ( 0.132955 -0.074010 -0.020175)
 16:    319.16   0.000397    2.01  0.000389  ( 0.014479 -0.010855 -0.007815)
 17:    322.45   0.000226    1.14  0.000219  ( 0.013642 -0.003672  0.004420)
 18:    366.18   0.000618    3.12  0.000526  (-0.021839  0.004236 -0.005623)
 19:    408.46   0.000014    0.07  0.000010  (-0.002629  0.001021  0.001578)
 20:    423.28   0.000103    0.52  0.000076  (-0.007354  0.001036 -0.004594)
 21:    451.55   0.000288    1.46  0.000199  (-0.013533  0.003073 -0.002585)
 22:    458.78   0.000286    1.44  0.000194  ( 0.003107 -0.005646 -0.012366)
 23:    541.69   0.000201    1.01  0.000116  ( 0.008428 -0.001303 -0.006547)
 24:    606.19   0.001123    5.67  0.000578  (-0.012008 -0.003757 -0.020485)
 25:    724.48   0.000902    4.56  0.000388  (-0.006759  0.001794  0.018424)
 26:    792.31   0.000480    2.43  0.000189  (-0.005594  0.006900  0.010504)
 27:    833.54   0.001733    8.76  0.000649  ( 0.008378 -0.007071 -0.022989)
 28:    892.14   0.000171    0.86  0.000060  ( 0.004816 -0.001292 -0.005901)
 29:    903.14   0.000344    1.74  0.000119  ( 0.005076 -0.001885 -0.009471)
 30:    936.18   0.000621    3.14  0.000207  (-0.013083 -0.002955 -0.005197)
 31:    941.36   0.000364    1.84  0.000121  (-0.000256 -0.003625  0.010367)
 32:    952.99   0.000360    1.82  0.000118  (-0.003308  0.009117  0.004891)
 33:    990.14   0.000779    3.93  0.000245  ( 0.012623  0.002312 -0.008982)
 34:    995.09   0.000333    1.68  0.000105  ( 0.002026 -0.003130 -0.009520)
 35:   1005.05   0.004244   21.45  0.001318  (-0.009525  0.000947 -0.035015)
 36:   1030.36   0.000302    1.53  0.000092  (-0.004079  0.005669  0.006541)
 37:   1076.49   0.001519    7.68  0.000440  ( 0.002953  0.006441 -0.019752)
 38:   1088.30   0.002179   11.01  0.000625  (-0.013670 -0.006117  0.020012)
 39:   1135.66   0.000012    0.06  0.000003  ( 0.000200 -0.001500  0.001056)
 40:   1138.73   0.001995   10.08  0.000547  ( 0.002824 -0.004257  0.022818)
 41:   1157.14   0.001121    5.67  0.000302  ( 0.005381  0.001422 -0.016476)
 42:   1175.72   0.000885    4.47  0.000235  ( 0.001775  0.000811 -0.015204)
 43:   1192.38   0.003731   18.86  0.000977  (-0.005592 -0.000429  0.030742)
 44:   1219.48   0.006132   30.99  0.001569  ( 0.003621  0.002309 -0.039380)
 45:   1224.99   0.003525   17.81  0.000898  ( 0.019455 -0.002776 -0.022621)
 46:   1228.86   0.000596    3.01  0.000151  ( 0.005005  0.005247  0.009937)
 47:   1262.00   0.003360   16.98  0.000831  (-0.017978 -0.001511  0.022480)
 48:   1297.73   0.001148    5.80  0.000276  ( 0.008018  0.004734 -0.013760)
 49:   1313.30   0.000552    2.79  0.000131  (-0.000143 -0.003625 -0.010868)
 50:   1334.50   0.001588    8.03  0.000371  (-0.002026 -0.005258  0.018431)
 51:   1358.96   0.000055    0.28  0.000013  (-0.001551  0.001907 -0.002553)
 52:   1371.66   0.001275    6.44  0.000290  ( 0.011631  0.005652 -0.011082)
 53:   1377.60   0.000228    1.15  0.000052  ( 0.004979  0.004756 -0.002060)
 54:   1387.61   0.000487    2.46  0.000110  (-0.004061 -0.001364  0.009552)
 55:   1402.56   0.000521    2.63  0.000116  ( 0.004164  0.001551  0.009808)
 56:   1415.58   0.000663    3.35  0.000146  ( 0.008383 -0.001142 -0.008635)
 57:   1431.25   0.000440    2.22  0.000096  ( 0.006459 -0.007213  0.001473)
 58:   1435.64   0.000365    1.84  0.000079  (-0.001435 -0.002235  0.008502)
 59:   1441.71   0.002204   11.14  0.000477  ( 0.007196 -0.020615 -0.000590)
 60:   1442.32   0.001766    8.93  0.000382  (-0.007748 -0.013500 -0.011827)
 61:   1451.48   0.002583   13.05  0.000555  (-0.016108  0.003932 -0.016744)
 62:   1454.94   0.001570    7.94  0.000337  (-0.016830 -0.001306  0.007201)
 63:   1474.40   0.001224    6.18  0.000259  ( 0.008105  0.013011 -0.004901)
 64:   1507.04   0.000620    3.13  0.000128  ( 0.003724  0.010558 -0.001727)
 65:   1513.37   0.001259    6.36  0.000260  ( 0.010291  0.011680  0.004153)
 66:   1514.91   0.000092    0.47  0.000019  (-0.004328 -0.000257  0.000468)
 67:   1526.55   0.000572    2.89  0.000117  (-0.000474  0.003268  0.010301)
 68:   1526.80   0.001555    7.86  0.000318  ( 0.003690 -0.011813 -0.012831)
 69:   1529.63   0.001881    9.50  0.000384  ( 0.002257 -0.014753  0.012686)
 70:   1533.78   0.001461    7.38  0.000297  (-0.007494  0.003804 -0.015056)
 71:   1537.46   0.000584    2.95  0.000118  (-0.001735 -0.008025  0.007143)
 72:   1548.33   0.004192   21.18  0.000845  (-0.020901 -0.001878  0.020111)
 73:   3060.00   0.001759    8.89  0.000179  ( 0.008297  0.005598 -0.008898)
 74:   3071.23   0.004210   21.28  0.000428  ( 0.002116  0.003186  0.020326)
 75:   3079.85   0.004652   23.51  0.000471  ( 0.010285  0.016791  0.009146)
 76:   3089.22   0.006992   35.33  0.000706  ( 0.025224  0.008249  0.001418)
 77:   3090.06   0.002993   15.13  0.000302  ( 0.010014 -0.014092 -0.001848)
 78:   3093.51   0.005649   28.55  0.000570  ( 0.015634  0.010328  0.014790)
 79:   3098.86   0.009140   46.19  0.000920  (-0.026557 -0.001130 -0.014626)
 80:   3100.86   0.016280   82.27  0.001638  ( 0.013684 -0.036890  0.009502)
 81:   3108.49   0.003291   16.63  0.000330  ( 0.002509 -0.007577  0.016330)
 82:   3111.09   0.004755   24.03  0.000477  ( 0.000478  0.021580 -0.003313)
 83:   3141.60   0.006434   32.51  0.000639  ( 0.004989 -0.012446  0.021431)
 84:   3149.09   0.001341    6.78  0.000133  ( 0.000146 -0.011522 -0.000325)
 85:   3166.39   0.005970   30.17  0.000588  (-0.003235  0.008222  0.022590)
 86:   3173.11   0.000244    1.23  0.000024  (-0.003377  0.003031  0.001849)
 87:   3177.28   0.005137   25.96  0.000505  ( 0.003794  0.003792 -0.021812)
 88:   3178.18   0.011216   56.68  0.001101  ( 0.024268  0.007479 -0.021365)
 89:   3183.81   0.004558   23.03  0.000447  (-0.003823  0.019670  0.006726)
 90:   3198.08   0.004268   21.57  0.000416  ( 0.006037  0.015716  0.011534)
 91:   3200.90   0.003828   19.34  0.000373  ( 0.013803 -0.011351  0.007335)
 92:   3967.26   0.009366   47.33  0.000737  (-0.005901 -0.018568 -0.018897)

--------------------------
THERMOCHEMISTRY AT 298.15K
--------------------------

Temperature         ...   298.15 K
Pressure            ...     1.00 atm
Total Mass          ...   156.27 AMU
Quasi RRHO          ...     True
Cut-Off Frequency   ...     1.00 cm^-1

Throughout the following assumptions are being made:
  (1) The electronic state is orbitally nondegenerate
  (2) There are no thermally accessible electronically excited states
  (3) Hindered rotations indicated by low frequency modes are not
      treated as such but are treated as vibrations and this may
      cause some error
  (4) All equations used are the standard statistical mechanics
      equations for an ideal gas
  (5) All vibrations are strictly harmonic

freq.      56.28  E(vib)   ...       0.52
freq.      83.32  E(vib)   ...       0.48
freq.     122.52  E(vib)   ...       0.43
freq.     171.38  E(vib)   ...       0.38
freq.     202.41  E(vib)   ...       0.35
freq.     231.50  E(vib)   ...       0.32
freq.     243.07  E(vib)   ...       0.31
freq.     257.11  E(vib)   ...       0.30
freq.     263.63  E(vib)   ...       0.29
freq.     269.97  E(vib)   ...       0.29
freq.     319.16  E(vib)   ...       0.25
freq.     322.45  E(vib)   ...       0.25
freq.     366.18  E(vib)   ...       0.22
freq.     408.46  E(vib)   ...       0.19
freq.     423.28  E(vib)   ...       0.18
freq.     451.55  E(vib)   ...       0.16
freq.     458.78  E(vib)   ...       0.16
freq.     541.69  E(vib)   ...       0.12
freq.     606.19  E(vib)   ...       0.10
freq.     724.48  E(vib)   ...       0.06
freq.     792.31  E(vib)   ...       0.05
freq.     833.54  E(vib)   ...       0.04
freq.     892.14  E(vib)   ...       0.03
freq.     903.14  E(vib)   ...       0.03
freq.     936.18  E(vib)   ...       0.03
freq.     941.36  E(vib)   ...       0.03
freq.     952.99  E(vib)   ...       0.03
freq.     990.14  E(vib)   ...       0.02
freq.     995.09  E(vib)   ...       0.02
freq.    1005.05  E(vib)   ...       0.02
freq.    1030.36  E(vib)   ...       0.02
freq.    1076.49  E(vib)   ...       0.02
freq.    1088.30  E(vib)   ...       0.02
freq.    1135.66  E(vib)   ...       0.01
freq.    1138.73  E(vib)   ...       0.01
freq.    1157.14  E(vib)   ...       0.01
freq.    1175.72  E(vib)   ...       0.01
freq.    1192.38  E(vib)   ...       0.01
freq.    1219.48  E(vib)   ...       0.01
freq.    1224.99  E(vib)   ...       0.01
freq.    1228.86  E(vib)   ...       0.01
freq.    1262.00  E(vib)   ...       0.01
freq.    1297.73  E(vib)   ...       0.01
freq.    1313.30  E(vib)   ...       0.01
freq.    1334.50  E(vib)   ...       0.01
freq.    1358.96  E(vib)   ...       0.01
freq.    1371.66  E(vib)   ...       0.01
freq.    1377.60  E(vib)   ...       0.01
freq.    1387.61  E(vib)   ...       0.00
freq.    1402.56  E(vib)   ...       0.00
freq.    1415.58  E(vib)   ...       0.00
freq.    1431.25  E(vib)   ...       0.00
freq.    1435.64  E(vib)   ...       0.00
freq.    1441.71  E(vib)   ...       0.00
freq.    1442.32  E(vib)   ...       0.00
freq.    1451.48  E(vib)   ...       0.00
freq.    1454.94  E(vib)   ...       0.00
freq.    1474.40  E(vib)   ...       0.00
freq.    1507.04  E(vib)   ...       0.00
freq.    1513.37  E(vib)   ...       0.00
freq.    1514.91  E(vib)   ...       0.00
freq.    1526.55  E(vib)   ...       0.00
freq.    1526.80  E(vib)   ...       0.00
freq.    1529.63  E(vib)   ...       0.00
freq.    1533.78  E(vib)   ...       0.00
freq.    1537.46  E(vib)   ...       0.00
freq.    1548.33  E(vib)   ...       0.00
freq.    3060.00  E(vib)   ...       0.00
freq.    3071.23  E(vib)   ...       0.00
freq.    3079.85  E(vib)   ...       0.00
freq.    3089.22  E(vib)   ...       0.00
freq.    3090.06  E(vib)   ...       0.00
freq.    3093.51  E(vib)   ...       0.00
freq.    3098.86  E(vib)   ...       0.00
freq.    3100.86  E(vib)   ...       0.00
freq.    3108.49  E(vib)   ...       0.00
freq.    3111.09  E(vib)   ...       0.00
freq.    3141.60  E(vib)   ...       0.00
freq.    3149.09  E(vib)   ...       0.00
freq.    3166.39  E(vib)   ...       0.00
freq.    3173.11  E(vib)   ...       0.00
freq.    3177.28  E(vib)   ...       0.00
freq.    3178.18  E(vib)   ...       0.00
freq.    3183.81  E(vib)   ...       0.00
freq.    3198.08  E(vib)   ...       0.00
freq.    3200.90  E(vib)   ...       0.00
freq.    3967.26  E(vib)   ...       0.00

------------
INNER ENERGY
------------

The inner energy is: U= E(el) + E(ZPE) + E(vib) + E(rot) + E(trans)
    E(el)   - is the total energy from the electronic structure calculation
              = E(kin-el) + E(nuc-el) + E(el-el) + E(nuc-nuc)
    E(ZPE)  - the the zero temperature vibrational energy from the frequency calculation
    E(vib)  - the the finite temperature correction to E(ZPE) due to population
              of excited vibrational states
    E(rot)  - is the rotational thermal energy
    E(trans)- is the translational thermal energy

Summary of contributions to the inner energy U:
Electronic energy                ...    -85.13474866 Eh
Zero point energy                ...      0.29448375 Eh     184.79 kcal/mol
Thermal vibrational correction   ...      0.00946728 Eh       5.94 kcal/mol
Thermal rotational correction    ...      0.00141627 Eh       0.89 kcal/mol
Thermal translational correction ...      0.00141627 Eh       0.89 kcal/mol
-----------------------------------------------------------------------
Total thermal energy                    -84.82796509 Eh

Summary of corrections to the electronic energy:
(perhaps to be used in another calculation)
Total thermal correction                  0.01229982 Eh       7.72 kcal/mol
Non-thermal (ZPE) correction              0.29448375 Eh     184.79 kcal/mol
-----------------------------------------------------------------------
Total correction                          0.30678357 Eh     192.51 kcal/mol

--------
ENTHALPY
--------

The enthalpy is H = U + kB*T
                kB is Boltzmann's constant
Total thermal energy              ...    -84.82796509 Eh
Thermal Enthalpy correction       ...      0.00094421 Eh       0.59 kcal/mol
-----------------------------------------------------------------------
Total Enthalpy                    ...    -84.82702088 Eh

Note: Only C1 symmetry has been detected, increase convergence thresholds
      if your molecule has a higher symmetry. Symmetry factor of 1.0 is
      used for the rotational entropy correction.

Note: Rotational entropy computed according to Herzberg
Infrared and Raman Spectra, Chapter V,1, Van Nostrand Reinhold, 1945
Point Group:  C1, Symmetry Number:   1
Rotational constants in cm-1:     0.065666     0.022953     0.020080

Vibrational entropy computed according to the QRRHO of S. Grimme

                             ****ORCA TERMINATED NORMALLY****
TOTAL RUN TIME: 0 days 0 hours 15 minutes 38 seconds 58 msec
