                         Program Version 6.0.1  -  RELEASE   -
|  1> ! wB97X-3c OPT FREQ TightSCF
|  2> %pal
|  3>   nprocs 40
|  4> end
|  5> * xyz 0 1
|  6> C      3.398429    -0.579076    -0.100016
|  7> C      1.951492    -0.186152    -0.227456
|  8> C      1.616856     0.860118    -1.001392
|  9> C      0.186995     1.290794    -1.168411
| 10> C     -0.611231     1.156673     0.145475
| 11> C     -0.237657    -0.047843     1.040005
| 12> C      0.884809    -0.965152     0.506162
| 13> C     -1.605624    -0.000210     0.339514
| 14> C     -2.784750     0.321056     1.264382
| 15> C     -1.917666    -0.960717    -0.824225
| 16> H      3.517207    -1.478162     0.540225
| 17> H      3.815132    -0.809458    -1.103388
| 18> H      3.975555     0.255275     0.351659
| 19> H      2.390655     1.423474    -1.516569
| 20> H     -0.272355     0.750720    -2.016422
| 21> H      0.182145     2.361878    -1.461287
| 22> H     -0.791109     2.083373     0.732939
| 23> H     -0.212632     0.216415     2.119763
| 24> H      0.510923    -1.783251    -0.136313
| 25> H      1.338951    -1.468318     1.385895
| 26> H     -2.500990     1.016807     2.083444
| 27> H     -3.600646     0.789653     0.675193
| 28> H     -3.164944    -0.617412     1.719492
| 29> H     -2.721210    -0.520940    -1.451117
| 30> H     -1.062761    -1.186677    -1.486819
| 31> H     -2.285574    -1.922866    -0.410732
| 32> *
| 33>
| 34>                          ****END OF INPUT****
 Total Charge           Charge          ....    0
 Multiplicity           Mult            ....    1
 Number of Electrons    NEL             ....   56
Dispersion correction           -0.030376461
FINAL SINGLE POINT ENERGY       -66.579340888778
Dispersion correction             ... done (  0.1 sec)
Dispersion correction           -0.030814244
FINAL SINGLE POINT ENERGY       -66.591118134918
Dispersion correction             ... done (  0.1 sec)
Dispersion correction           -0.030908523
FINAL SINGLE POINT ENERGY       -66.593084379646
Dispersion correction             ... done (  0.1 sec)
FINAL SINGLE POINT ENERGY       -66.594178170220
FINAL SINGLE POINT ENERGY       -66.595528855074
FINAL SINGLE POINT ENERGY       -66.596981183104
FINAL SINGLE POINT ENERGY       -66.598903918391
FINAL SINGLE POINT ENERGY       -66.600047759459
FINAL SINGLE POINT ENERGY       -66.601313804985
FINAL SINGLE POINT ENERGY       -66.602247491903
FINAL SINGLE POINT ENERGY       -66.602519221367
FINAL SINGLE POINT ENERGY       -66.602640807816
FINAL SINGLE POINT ENERGY       -66.602706877506
FINAL SINGLE POINT ENERGY       -66.602726982013
Dispersion correction             ... done (  0.1 sec)
Dispersion correction           -0.031273566
FINAL SINGLE POINT ENERGY       -66.602736119365
Dispersion correction             ... done (  0.1 sec)
Dispersion correction           -0.031274938
FINAL SINGLE POINT ENERGY       -66.602738528672
Dispersion correction             ... done (  0.1 sec)
                    ***********************HURRAY********************

CARTESIAN COORDINATES (ANGSTROEM)
---------------------------------
  C      3.067407   -0.956445   -0.459266
  C      1.802333   -0.184915   -0.257373
  C      1.416448    0.764986   -1.097794
  C      0.171086    1.581573   -0.976715
  C     -0.680437    1.276079    0.228235
  C     -0.259104    0.206246    1.192336
  C      1.013611   -0.565392    0.958640
  C     -1.478880    0.013132    0.343442
  C     -2.810469    0.117715    1.039990
  C     -1.468035   -0.991450   -0.776554
  H      2.860427   -2.024640   -0.545788
  H      3.593266   -0.637780   -1.356748
  H      3.739069   -0.832266    0.391903
  H      2.043621    0.984336   -1.955721
  H     -0.416354    1.474821   -1.894055
  H      0.458416    2.634910   -0.942017
  H     -1.146976    2.149216    0.667659
  H     -0.461215    0.406674    2.237369
  H      0.805473   -1.639947    0.917865
  H      1.664165   -0.435081    1.827290
  H     -2.782020    0.855071    1.841485
  H     -3.594291    0.415043    0.341184
  H     -3.099343   -0.839581    1.477284
  H     -2.209045   -0.726222   -1.532541
  H     -0.502066   -1.063283   -1.269232
  H     -1.727090   -1.982798   -0.400877

 Multiplicity           Mult            ....    1
 Number of Electrons    NEL             ....   56
 Basis Dimension        Dim             ....  210

ORBITAL ENERGIES
----------------

  NO   OCC          E(Eh)            E(eV)
   0   2.0000      -1.025444       -27.9037
   1   2.0000      -0.949039       -25.8247
   2   2.0000      -0.888268       -24.1710
   3   2.0000      -0.866262       -23.5722
   4   2.0000      -0.828705       -22.5502
   5   2.0000      -0.813769       -22.1438
   6   2.0000      -0.769244       -20.9322
   7   2.0000      -0.702536       -19.1170
   8   2.0000      -0.652381       -17.7522
   9   2.0000      -0.614835       -16.7305
  10   2.0000      -0.589893       -16.0518
  11   2.0000      -0.578013       -15.7285
  12   2.0000      -0.562496       -15.3063
  13   2.0000      -0.553557       -15.0631
  14   2.0000      -0.534591       -14.5470
  15   2.0000      -0.520645       -14.1675
  16   2.0000      -0.512616       -13.9490
  17   2.0000      -0.497037       -13.5251
  18   2.0000      -0.492192       -13.3932
  19   2.0000      -0.485008       -13.1977
  20   2.0000      -0.479399       -13.0451
  21   2.0000      -0.472200       -12.8492
  22   2.0000      -0.459185       -12.4951
  23   2.0000      -0.433217       -11.7884
  24   2.0000      -0.414430       -11.2772
  25   2.0000      -0.368362       -10.0237
  26   2.0000      -0.354531        -9.6473
  27   2.0000      -0.327402        -8.9091
  28   0.0000       0.084674         2.3041
  29   0.0000       0.098990         2.6937
  30   0.0000       0.100725         2.7409
  31   0.0000       0.106727         2.9042
  32   0.0000       0.110141         2.9971

MULLIKEN ATOMIC CHARGES
-----------------------
   0 C :   -0.048626
   1 C :   -0.073806
   2 C :   -0.018525
   3 C :   -0.069630
   4 C :   -0.024303
   5 C :   -0.024174
   6 C :   -0.061471
   7 C :   -0.103131
   8 C :   -0.028704
   9 C :   -0.026114
  10 H :    0.032996
  11 H :    0.024510
  12 H :    0.033665
  13 H :    0.013370
  14 H :    0.039694
  15 H :    0.045235
  16 H :    0.025331
  17 H :    0.023104
  18 H :    0.035373
  19 H :    0.043834
  20 H :    0.018270
  21 H :    0.026046
  22 H :    0.025965
  23 H :    0.027505
  24 H :    0.036266
  25 H :    0.027319
Sum of atomic charges:    0.0000000

LOEWDIN ATOMIC CHARGES
----------------------
   0 C :   -0.107696
   1 C :   -0.054947
   2 C :   -0.056381
   3 C :   -0.088211
   4 C :   -0.043955
   5 C :   -0.043526
   6 C :   -0.078817
   7 C :   -0.074071
   8 C :   -0.103572
   9 C :   -0.099336
  10 H :    0.047481
  11 H :    0.049276
  12 H :    0.048248
  13 H :    0.038220
  14 H :    0.049650
  15 H :    0.054683
  16 H :    0.041937
  17 H :    0.041884
  18 H :    0.050215
  19 H :    0.055955
  20 H :    0.045259
  21 H :    0.044803
  22 H :    0.044623
  23 H :    0.045727
  24 H :    0.047123
  25 H :    0.045427

  Mayer bond orders larger than 0.100000
B(  0-C ,  1-C ) :   1.0326 B(  0-C , 10-H ) :   0.9793 B(  0-C , 11-H ) :   0.9911
B(  0-C , 12-H ) :   0.9813 B(  1-C ,  2-C ) :   1.9033 B(  1-C ,  6-C ) :   1.0098
B(  2-C ,  3-C ) :   1.0265 B(  2-C , 13-H ) :   0.9859 B(  3-C ,  4-C ) :   1.0119
B(  3-C , 14-H ) :   0.9783 B(  3-C , 15-H ) :   0.9832 B(  4-C ,  5-C ) :   0.9505
B(  4-C ,  7-C ) :   0.9264 B(  4-C , 16-H ) :   1.0052 B(  5-C ,  6-C ) :   1.0209
B(  5-C ,  7-C ) :   0.9255 B(  5-C , 17-H ) :   1.0047 B(  6-C , 18-H ) :   0.9778
B(  6-C , 19-H ) :   0.9831 B(  7-C ,  8-C ) :   1.0310 B(  7-C ,  9-C ) :   1.0200
B(  8-C , 20-H ) :   0.9896 B(  8-C , 21-H ) :   0.9882 B(  8-C , 22-H ) :   0.9881
B(  9-C , 23-H ) :   0.9874 B(  9-C , 24-H ) :   0.9824 B(  9-C , 25-H ) :   0.9873

Dispersion correction           -0.031275356
FINAL SINGLE POINT ENERGY       -66.602739125227

DIPOLE MOMENT
-------------

Method             : SCF
Type of density    : Electron Density
Multiplicity       :   1
Irrep              :   0
Energy             :   -66.5714637695600828 Eh
Relativity type    :
Basis              : AO
                                X                 Y                 Z
Electronic contribution:      2.239258192       3.600256531       0.616849538
Nuclear contribution   :     -2.227112919      -3.630105687      -0.560948688
                        -----------------------------------------
Total Dipole Moment    :      0.012145273      -0.029849156       0.055900850
                        -----------------------------------------
Magnitude (a.u.)       :      0.064524296
Magnitude (Debye)      :      0.164007726

VIBRATIONAL FREQUENCIES
-----------------------

Scaling factor for frequencies =  1.000000000  (already applied!)

     0:       0.00 cm**-1
     1:       0.00 cm**-1
     2:       0.00 cm**-1
     3:       0.00 cm**-1
     4:       0.00 cm**-1
     5:       0.00 cm**-1
     6:      81.93 cm**-1
     7:     160.61 cm**-1
     8:     181.17 cm**-1
     9:     194.26 cm**-1
    10:     210.00 cm**-1
    11:     242.02 cm**-1
    12:     256.87 cm**-1
    13:     276.65 cm**-1
    14:     346.42 cm**-1
    15:     358.62 cm**-1
    16:     417.40 cm**-1
    17:     437.33 cm**-1
    18:     473.02 cm**-1
    19:     520.73 cm**-1
    20:     590.21 cm**-1
    21:     716.10 cm**-1
    22:     748.98 cm**-1
    23:     808.75 cm**-1
    24:     824.30 cm**-1
    25:     859.51 cm**-1
    26:     940.47 cm**-1
    27:     963.00 cm**-1
    28:     979.90 cm**-1
    29:     988.40 cm**-1
    30:     994.87 cm**-1
    31:    1022.58 cm**-1
    32:    1045.70 cm**-1
    33:    1054.16 cm**-1
    34:    1081.04 cm**-1
    35:    1094.48 cm**-1
    36:    1130.73 cm**-1
    37:    1151.70 cm**-1
    38:    1204.43 cm**-1
    39:    1208.42 cm**-1
    40:    1221.50 cm**-1
    41:    1274.35 cm**-1
    42:    1281.55 cm**-1
    43:    1287.44 cm**-1
    44:    1362.95 cm**-1
    45:    1375.61 cm**-1
    46:    1405.30 cm**-1
    47:    1428.65 cm**-1
    48:    1442.02 cm**-1
    49:    1448.23 cm**-1
    50:    1458.90 cm**-1
    51:    1460.79 cm**-1
    52:    1504.46 cm**-1
    53:    1509.78 cm**-1
    54:    1511.07 cm**-1
    55:    1513.73 cm**-1
    56:    1515.93 cm**-1
    57:    1522.33 cm**-1
    58:    1524.00 cm**-1
    59:    1536.83 cm**-1
    60:    1562.34 cm**-1
    61:    1815.60 cm**-1
    62:    3073.21 cm**-1
    63:    3080.43 cm**-1
    64:    3087.22 cm**-1
    65:    3092.66 cm**-1
    66:    3094.04 cm**-1
    67:    3117.85 cm**-1
    68:    3124.05 cm**-1
    69:    3167.07 cm**-1
    70:    3167.64 cm**-1
    71:    3170.40 cm**-1
    72:    3187.57 cm**-1
    73:    3203.58 cm**-1
    74:    3203.87 cm**-1
    75:    3212.14 cm**-1
    76:    3214.28 cm**-1
    77:    3215.22 cm**-1

IR SPECTRUM
-----------

 Mode   freq       eps      Int      T**2         TX        TY        TZ
       cm**-1   L/(mol*cm) km/mol    a.u.
----------------------------------------------------------------------------
  6:     81.93   0.000007    0.03  0.000025  (-0.004805 -0.001065  0.000877)
  7:    160.61   0.000114    0.58  0.000222  (-0.009672 -0.009309 -0.006479)
  8:    181.17   0.000074    0.37  0.000127  (-0.006291 -0.008213 -0.004483)
  9:    194.26   0.000027    0.13  0.000043  ( 0.002462 -0.004357  0.004204)
 10:    210.00   0.000002    0.01  0.000004  ( 0.001721  0.000767  0.000213)
 11:    242.02   0.000099    0.50  0.000127  (-0.006785 -0.007530 -0.004967)
 12:    256.87   0.000243    1.23  0.000295  ( 0.009536  0.013303  0.005191)
 13:    276.65   0.000361    1.82  0.000407  ( 0.013454  0.008559  0.012359)
 14:    346.42   0.000025    0.12  0.000022  (-0.001450  0.004397  0.000815)
 15:    358.62   0.000027    0.14  0.000023  ( 0.002223 -0.000647  0.004252)
 16:    417.40   0.000284    1.44  0.000213  ( 0.010444  0.008310  0.005880)
 17:    437.33   0.000669    3.38  0.000477  ( 0.012629  0.012177  0.013019)
 18:    473.02   0.000278    1.41  0.000183  ( 0.004366  0.012819  0.000238)
 19:    520.73   0.000108    0.55  0.000065  ( 0.000463 -0.005385 -0.005972)
 20:    590.21   0.000095    0.48  0.000050  (-0.004945 -0.003349 -0.003844)
 21:    716.10   0.000020    0.10  0.000009  ( 0.002891 -0.000596 -0.000085)
 22:    748.98   0.000325    1.64  0.000135  ( 0.004079  0.009373  0.005563)
 23:    808.75   0.000865    4.37  0.000334  ( 0.004200  0.017715 -0.001524)
 24:    824.30   0.002644   13.36  0.001001  ( 0.017007  0.019103  0.018627)
 25:    859.51   0.000080    0.40  0.000029  (-0.000106  0.005324 -0.000763)
 26:    940.47   0.000443    2.24  0.000147  (-0.006262 -0.000152 -0.010383)
 27:    963.00   0.000300    1.52  0.000097  (-0.007065 -0.002901 -0.006243)
 28:    979.90   0.000172    0.87  0.000055  (-0.004477 -0.005781  0.001183)
 29:    988.40   0.001397    7.06  0.000441  (-0.016426 -0.011266 -0.006668)
 30:    994.87   0.000499    2.52  0.000156  (-0.009940  0.003300  0.006838)
 31:   1022.58   0.000827    4.18  0.000252  ( 0.013525  0.008200  0.001495)
 32:   1045.70   0.000430    2.17  0.000128  (-0.009248  0.003940  0.005228)
 33:   1054.16   0.000113    0.57  0.000033  ( 0.003883 -0.004214  0.000795)
 34:   1081.04   0.000796    4.02  0.000230  (-0.000804 -0.010024  0.011337)
 35:   1094.48   0.000228    1.15  0.000065  ( 0.005765  0.004799  0.002980)
 36:   1130.73   0.000108    0.54  0.000030  ( 0.000066 -0.004964  0.002256)
 37:   1151.70   0.000179    0.90  0.000048  (-0.001965  0.004637 -0.004807)
 38:   1204.43   0.000871    4.40  0.000226  (-0.007981  0.010756 -0.006795)
 39:   1208.42   0.000811    4.10  0.000209  ( 0.005419  0.005936 -0.012032)
 40:   1221.50   0.000102    0.52  0.000026  (-0.003568  0.000540 -0.003625)
 41:   1274.35   0.000256    1.29  0.000063  ( 0.005295 -0.002644 -0.005255)
 42:   1281.55   0.000502    2.54  0.000122  (-0.010965  0.000810 -0.001211)
 43:   1287.44   0.000401    2.03  0.000097  (-0.006435 -0.007387 -0.001102)
 44:   1362.95   0.000308    1.55  0.000070  (-0.000255 -0.008387 -0.000025)
 45:   1375.61   0.000231    1.17  0.000052  ( 0.000596  0.002526  0.006758)
 46:   1405.30   0.000375    1.90  0.000083  (-0.005946  0.002731 -0.006366)
 47:   1428.65   0.000090    0.45  0.000020  (-0.000304 -0.004402 -0.000406)
 48:   1442.02   0.000195    0.99  0.000042  (-0.005791  0.002951 -0.000125)
 49:   1448.23   0.001945    9.83  0.000419  (-0.011792  0.008816  0.014224)
 50:   1458.90   0.001080    5.46  0.000231  (-0.012063 -0.007800 -0.004970)
 51:   1460.79   0.001161    5.87  0.000248  ( 0.008965 -0.005400 -0.011768)
 52:   1504.46   0.001199    6.06  0.000249  (-0.006537  0.012332 -0.007336)
 53:   1509.78   0.002335   11.80  0.000483  ( 0.012580  0.015187  0.009682)
 54:   1511.07   0.000573    2.90  0.000118  (-0.001290  0.000745 -0.010780)
 55:   1513.73   0.000221    1.12  0.000046  ( 0.004677  0.001006 -0.004762)
 56:   1515.93   0.001880    9.50  0.000387  (-0.007466  0.014115 -0.011490)
 57:   1522.33   0.001656    8.37  0.000339  (-0.001592  0.006499  0.017164)
 58:   1524.00   0.002773   14.01  0.000568  ( 0.005068  0.017810 -0.014995)
 59:   1536.83   0.000326    1.65  0.000066  (-0.003653  0.004972 -0.005310)
 60:   1562.34   0.000245    1.24  0.000049  (-0.005179 -0.003766 -0.002807)
 61:   1815.60   0.000384    1.94  0.000066  (-0.001712 -0.005677  0.005548)
 62:   3073.21   0.007913   39.99  0.000804  ( 0.011413 -0.021271  0.014861)
 63:   3080.43   0.009231   46.65  0.000935  ( 0.003711 -0.020257  0.022606)
 64:   3087.22   0.008237   41.62  0.000833  (-0.025224  0.004580  0.013241)
 65:   3092.66   0.010119   51.13  0.001021  (-0.027342  0.015034 -0.006886)
 66:   3094.04   0.009408   47.55  0.000949  ( 0.016379  0.023037  0.012244)
 67:   3117.85   0.002863   14.47  0.000287  (-0.011301 -0.007664 -0.010006)
 68:   3124.05   0.002443   12.35  0.000244  ( 0.007707  0.012620  0.005043)
 69:   3167.07   0.001845    9.32  0.000182  ( 0.005275 -0.007342  0.010002)
 70:   3167.64   0.002422   12.24  0.000239  ( 0.007320  0.012016  0.006377)
 71:   3170.40   0.005749   29.05  0.000566  ( 0.006707 -0.016888  0.015352)
 72:   3187.57   0.003264   16.49  0.000320  (-0.008938 -0.012295 -0.009405)
 73:   3203.58   0.002770   14.00  0.000270  ( 0.000365  0.009665 -0.013277)
 74:   3203.87   0.000852    4.31  0.000083  (-0.005555  0.006302 -0.003528)
 75:   3212.14   0.008137   41.12  0.000791  ( 0.016602  0.000890 -0.022674)
 76:   3214.28   0.001693    8.55  0.000164  (-0.005567 -0.010556 -0.004683)
 77:   3215.22   0.003035   15.34  0.000295  ( 0.007797 -0.010878 -0.010746)

--------------------------
THERMOCHEMISTRY AT 298.15K
--------------------------

Temperature         ...   298.15 K
Pressure            ...     1.00 atm
Total Mass          ...   136.24 AMU
Quasi RRHO          ...     True
Cut-Off Frequency   ...     1.00 cm^-1

Throughout the following assumptions are being made:
  (1) The electronic state is orbitally nondegenerate
  (2) There are no thermally accessible electronically excited states
  (3) Hindered rotations indicated by low frequency modes are not
      treated as such but are treated as vibrations and this may
      cause some error
  (4) All equations used are the standard statistical mechanics
      equations for an ideal gas
  (5) All vibrations are strictly harmonic

freq.      81.93  E(vib)   ...       0.48
freq.     160.61  E(vib)   ...       0.39
freq.     181.17  E(vib)   ...       0.37
freq.     194.26  E(vib)   ...       0.36
freq.     210.00  E(vib)   ...       0.34
freq.     242.02  E(vib)   ...       0.31
freq.     256.87  E(vib)   ...       0.30
freq.     276.65  E(vib)   ...       0.28
freq.     346.42  E(vib)   ...       0.23
freq.     358.62  E(vib)   ...       0.22
freq.     417.40  E(vib)   ...       0.18
freq.     437.33  E(vib)   ...       0.17
freq.     473.02  E(vib)   ...       0.15
freq.     520.73  E(vib)   ...       0.13
freq.     590.21  E(vib)   ...       0.10
freq.     716.10  E(vib)   ...       0.07
freq.     748.98  E(vib)   ...       0.06
freq.     808.75  E(vib)   ...       0.05
freq.     824.30  E(vib)   ...       0.04
freq.     859.51  E(vib)   ...       0.04
freq.     940.47  E(vib)   ...       0.03
freq.     963.00  E(vib)   ...       0.03
freq.     979.90  E(vib)   ...       0.02
freq.     988.40  E(vib)   ...       0.02
freq.     994.87  E(vib)   ...       0.02
freq.    1022.58  E(vib)   ...       0.02
freq.    1045.70  E(vib)   ...       0.02
freq.    1054.16  E(vib)   ...       0.02
freq.    1081.04  E(vib)   ...       0.02
freq.    1094.48  E(vib)   ...       0.02
freq.    1130.73  E(vib)   ...       0.01
freq.    1151.70  E(vib)   ...       0.01
freq.    1204.43  E(vib)   ...       0.01
freq.    1208.42  E(vib)   ...       0.01
freq.    1221.50  E(vib)   ...       0.01
freq.    1274.35  E(vib)   ...       0.01
freq.    1281.55  E(vib)   ...       0.01
freq.    1287.44  E(vib)   ...       0.01
freq.    1362.95  E(vib)   ...       0.01
freq.    1375.61  E(vib)   ...       0.01
freq.    1405.30  E(vib)   ...       0.00
freq.    1428.65  E(vib)   ...       0.00
freq.    1442.02  E(vib)   ...       0.00
freq.    1448.23  E(vib)   ...       0.00
freq.    1458.90  E(vib)   ...       0.00
freq.    1460.79  E(vib)   ...       0.00
freq.    1504.46  E(vib)   ...       0.00
freq.    1509.78  E(vib)   ...       0.00
freq.    1511.07  E(vib)   ...       0.00
freq.    1513.73  E(vib)   ...       0.00
freq.    1515.93  E(vib)   ...       0.00
freq.    1522.33  E(vib)   ...       0.00
freq.    1524.00  E(vib)   ...       0.00
freq.    1536.83  E(vib)   ...       0.00
freq.    1562.34  E(vib)   ...       0.00
freq.    1815.60  E(vib)   ...       0.00
freq.    3073.21  E(vib)   ...       0.00
freq.    3080.43  E(vib)   ...       0.00
freq.    3087.22  E(vib)   ...       0.00
freq.    3092.66  E(vib)   ...       0.00
freq.    3094.04  E(vib)   ...       0.00
freq.    3117.85  E(vib)   ...       0.00
freq.    3124.05  E(vib)   ...       0.00
freq.    3167.07  E(vib)   ...       0.00
freq.    3167.64  E(vib)   ...       0.00
freq.    3170.40  E(vib)   ...       0.00
freq.    3187.57  E(vib)   ...       0.00
freq.    3203.58  E(vib)   ...       0.00
freq.    3203.87  E(vib)   ...       0.00
freq.    3212.14  E(vib)   ...       0.00
freq.    3214.28  E(vib)   ...       0.00
freq.    3215.22  E(vib)   ...       0.00

------------
INNER ENERGY
------------

The inner energy is: U= E(el) + E(ZPE) + E(vib) + E(rot) + E(trans)
    E(el)   - is the total energy from the electronic structure calculation
              = E(kin-el) + E(nuc-el) + E(el-el) + E(nuc-nuc)
    E(ZPE)  - the the zero temperature vibrational energy from the frequency calculation
    E(vib)  - the the finite temperature correction to E(ZPE) due to population
              of excited vibrational states
    E(rot)  - is the rotational thermal energy
    E(trans)- is the translational thermal energy

Summary of contributions to the inner energy U:
Electronic energy                ...    -66.60273913 Eh
Zero point energy                ...      0.24134754 Eh     151.45 kcal/mol
Thermal vibrational correction   ...      0.00741615 Eh       4.65 kcal/mol
Thermal rotational correction    ...      0.00141627 Eh       0.89 kcal/mol
Thermal translational correction ...      0.00141627 Eh       0.89 kcal/mol
-----------------------------------------------------------------------
Total thermal energy                    -66.35114290 Eh

Summary of corrections to the electronic energy:
(perhaps to be used in another calculation)
Total thermal correction                  0.01024869 Eh       6.43 kcal/mol
Non-thermal (ZPE) correction              0.24134754 Eh     151.45 kcal/mol
-----------------------------------------------------------------------
Total correction                          0.25159623 Eh     157.88 kcal/mol

--------
ENTHALPY
--------

The enthalpy is H = U + kB*T
                kB is Boltzmann's constant
Total thermal energy              ...    -66.35114290 Eh
Thermal Enthalpy correction       ...      0.00094421 Eh       0.59 kcal/mol
-----------------------------------------------------------------------
Total Enthalpy                    ...    -66.35019869 Eh

Note: Only C1 symmetry has been detected, increase convergence thresholds
      if your molecule has a higher symmetry. Symmetry factor of 1.0 is
      used for the rotational entropy correction.

Note: Rotational entropy computed according to Herzberg
Infrared and Raman Spectra, Chapter V,1, Van Nostrand Reinhold, 1945
Point Group:  C1, Symmetry Number:   1
Rotational constants in cm-1:     0.083549     0.032189     0.029493

Vibrational entropy computed according to the QRRHO of S. Grimme
Chem.Eur.J. 2012 18 9955 using a reference frequency of 100.0 cm-1

-------
ENTROPY
-------

The entropy contributions are T*S = T*(S(el)+S(vib)+S(rot)+S(trans))
     S(el)   - electronic entropy
     S(vib)  - vibrational entropy
     S(rot)  - rotational entropy
     S(trans)- translational entropy
The entropies will be listed as multiplied by the temperature to get
units of energy

                             ****ORCA TERMINATED NORMALLY****
TOTAL RUN TIME: 0 days 0 hours 18 minutes 7 seconds 960 msec
