                         Program Version 6.0.1  -  RELEASE   -
|  1> ! wB97X-3c OPT FREQ TightSCF
|  2> %pal
|  3>   nprocs 40
|  4> end
|  5> * xyz 0 1
|  6> C      2.066861    -1.034413    -1.248473
|  7> C      1.624115    -0.003357    -0.201568
|  8> C      0.504843    -0.537499     0.753004
|  9> C      0.195442     0.637287     1.704418
| 10> C     -0.860159     1.083205     0.679247
| 11> C     -0.930121    -0.376286     0.169860
| 12> C     -1.963797    -1.218467     0.961708
| 13> C     -1.191648    -0.602476    -1.342928
| 14> C     -0.123585     1.997231    -0.350391
| 15> C      1.188814     1.340783    -0.810218
| 16> O      1.898974     1.908027    -1.625919
| 17> H      2.311643    -1.996363    -0.750272
| 18> H      2.982874    -0.673019    -1.762448
| 19> H      1.300572    -1.223118    -2.020987
| 20> H      2.523643     0.196876     0.422834
| 21> H      0.728791    -1.498845     1.265230
| 22> H      1.022328     1.361007     1.891936
| 23> H     -0.254193     0.305463     2.665383
| 24> H     -1.794805     1.503672     1.109788
| 25> H     -2.995407    -0.897436     0.702776
| 26> H     -1.852653    -2.293244     0.703334
| 27> H     -1.851588    -1.126967     2.061031
| 28> H     -0.576558     0.004766    -2.028487
| 29> H     -2.248630    -0.353038    -1.576135
| 30> H     -1.029936    -1.672354    -1.593040
| 31> H      0.106161     2.974045     0.126538
| 32> H     -0.781982     2.194520    -1.222559
| 33> *
| 34>
| 35>                          ****END OF INPUT****
 Total Charge           Charge          ....    0
 Multiplicity           Mult            ....    1
 Number of Electrons    NEL             ....   62
Dispersion correction           -0.034836694
FINAL SINGLE POINT ENERGY       -82.663596421555
Dispersion correction             ... done (  0.1 sec)
Dispersion correction           -0.035362571
FINAL SINGLE POINT ENERGY       -82.674394664466
Dispersion correction             ... done (  0.1 sec)
Dispersion correction           -0.035443905
FINAL SINGLE POINT ENERGY       -82.675748016576
Dispersion correction             ... done (  0.1 sec)
FINAL SINGLE POINT ENERGY       -82.675890800423
FINAL SINGLE POINT ENERGY       -82.676379280951
FINAL SINGLE POINT ENERGY       -82.676452319611
FINAL SINGLE POINT ENERGY       -82.676501146762
Dispersion correction             ... done (  0.1 sec)
Dispersion correction           -0.035432994
FINAL SINGLE POINT ENERGY       -82.676507427387
Dispersion correction             ... done (  0.1 sec)
Dispersion correction           -0.035440598
FINAL SINGLE POINT ENERGY       -82.676509357047
Dispersion correction             ... done (  0.1 sec)
                    ***********************HURRAY********************

CARTESIAN COORDINATES (ANGSTROEM)
---------------------------------
  C      2.108598   -1.019057   -1.209918
  C      1.584694   -0.009696   -0.204198
  C      0.500020   -0.530133    0.732909
  C      0.155163    0.588520    1.730456
  C     -0.845720    1.088964    0.679443
  C     -0.937051   -0.368082    0.155228
  C     -1.943057   -1.191207    0.944857
  C     -1.207258   -0.581920   -1.322107
  C     -0.101569    1.966652   -0.310010
  C      1.139000    1.289810   -0.863782
  O      1.749870    1.773161   -1.783624
  H      2.570137   -1.856591   -0.688824
  H      2.853908   -0.558411   -1.853733
  H      1.315343   -1.413072   -1.840746
  H      2.432273    0.290528    0.422553
  H      0.765762   -1.510463    1.131641
  H      0.963033    1.268433    2.004680
  H     -0.317129    0.229186    2.639447
  H     -1.768448    1.559038    1.022026
  H     -2.960888   -0.896593    0.686292
  H     -1.834785   -2.250247    0.707915
  H     -1.831464   -1.081855    2.021039
  H     -0.531117   -0.048351   -1.984970
  H     -2.219143   -0.249965   -1.560623
  H     -1.145403   -1.640700   -1.575008
  H      0.221181    2.895566    0.164973
  H     -0.715951    2.256486   -1.162254

 Multiplicity           Mult            ....    1
 Number of Electrons    NEL             ....   62
 Basis Dimension        Dim             ....  223

ORBITAL ENERGIES
----------------

  NO   OCC          E(Eh)            E(eV)
   0   2.0000      -1.169843       -31.8330
   1   2.0000      -1.039646       -28.2902
   2   2.0000      -0.926956       -25.2238
   3   2.0000      -0.906299       -24.6617
   4   2.0000      -0.877642       -23.8819
   5   2.0000      -0.822447       -22.3799
   6   2.0000      -0.802098       -21.8262
   7   2.0000      -0.750215       -20.4144
   8   2.0000      -0.737505       -20.0685
   9   2.0000      -0.682397       -18.5690
  10   2.0000      -0.622571       -16.9410
  11   2.0000      -0.607659       -16.5352
  12   2.0000      -0.587265       -15.9803
  13   2.0000      -0.585503       -15.9323
  14   2.0000      -0.576616       -15.6905
  15   2.0000      -0.550845       -14.9893
  16   2.0000      -0.537246       -14.6192
  17   2.0000      -0.529973       -14.4213
  18   2.0000      -0.521698       -14.1961
  19   2.0000      -0.507656       -13.8140
  20   2.0000      -0.494072       -13.4444
  21   2.0000      -0.491936       -13.3863
  22   2.0000      -0.488104       -13.2820
  23   2.0000      -0.473799       -12.8927
  24   2.0000      -0.470995       -12.8164
  25   2.0000      -0.450740       -12.2653
  26   2.0000      -0.421212       -11.4618
  27   2.0000      -0.414338       -11.2747
  28   2.0000      -0.402647       -10.9566
  29   2.0000      -0.397872       -10.8267
  30   2.0000      -0.346281        -9.4228
  31   0.0000       0.060850         1.6558
  32   0.0000       0.083642         2.2760
  33   0.0000       0.095231         2.5914
  34   0.0000       0.099999         2.7211
  35   0.0000       0.106226         2.8906

MULLIKEN ATOMIC CHARGES
-----------------------
   0 C :   -0.020946
   1 C :   -0.129391
   2 C :   -0.012887
   3 C :   -0.012993
   4 C :   -0.024394
   5 C :   -0.165203
   6 C :   -0.016862
   7 C :   -0.019677
   8 C :   -0.057740
   9 C :    0.187388
  10 O :   -0.310516
  11 H :    0.029021
  12 H :    0.052154
  13 H :    0.019811
  14 H :    0.063421
  15 H :    0.033983
  16 H :    0.026468
  17 H :    0.031399
  18 H :    0.035091
  19 H :    0.028990
  20 H :    0.030094
  21 H :    0.017356
  22 H :    0.036525
  23 H :    0.031968
  24 H :    0.032451
  25 H :    0.059963
  26 H :    0.054524
Sum of atomic charges:   -0.0000000

LOEWDIN ATOMIC CHARGES
----------------------
   0 C :   -0.096205
   1 C :   -0.072138
   2 C :   -0.032106
   3 C :   -0.055634
   4 C :   -0.040820
   5 C :   -0.058715
   6 C :   -0.100491
   7 C :   -0.103719
   8 C :   -0.069080
   9 C :    0.015990
  10 O :   -0.125233
  11 H :    0.045033
  12 H :    0.052448
  13 H :    0.042217
  14 H :    0.061878
  15 H :    0.036473
  16 H :    0.034375
  17 H :    0.037848
  18 H :    0.035816
  19 H :    0.045937
  20 H :    0.046087
  21 H :    0.042994
  22 H :    0.042420
  23 H :    0.048960
  24 H :    0.046933
  25 H :    0.060131
  26 H :    0.058601

  Mayer bond orders larger than 0.100000
B(  0-C ,  1-C ) :   1.0033 B(  0-C , 11-H ) :   0.9930 B(  0-C , 12-H ) :   0.9827
B(  0-C , 13-H ) :   0.9921 B(  1-C ,  2-C ) :   0.9927 B(  1-C ,  9-C ) :   0.9942
B(  1-C , 14-H ) :   0.9692 B(  2-C ,  3-C ) :   0.9847 B(  2-C ,  5-C ) :   0.9509
B(  2-C , 15-H ) :   1.0003 B(  3-C ,  4-C ) :   0.9784 B(  3-C , 16-H ) :   1.0021
B(  3-C , 17-H ) :   1.0020 B(  4-C ,  5-C ) :   0.9544 B(  4-C ,  8-C ) :   1.0056
B(  4-C , 18-H ) :   1.0008 B(  5-C ,  6-C ) :   1.0315 B(  5-C ,  7-C ) :   1.0173
B(  6-C , 19-H ) :   0.9903 B(  6-C , 20-H ) :   0.9904 B(  6-C , 21-H ) :   0.9905
B(  7-C , 22-H ) :   0.9844 B(  7-C , 23-H ) :   0.9850 B(  7-C , 24-H ) :   0.9875
B(  8-C ,  9-C ) :   1.0071 B(  8-C , 25-H ) :   0.9707 B(  8-C , 26-H ) :   0.9760
B(  9-C , 10-O ) :   1.9176

Dispersion correction           -0.035440574
FINAL SINGLE POINT ENERGY       -82.676509767856

DIPOLE MOMENT
-------------

Method             : SCF
Type of density    : Electron Density
Multiplicity       :   1
Irrep              :   0
Energy             :   -82.6410691941399733 Eh
Relativity type    :
Basis              : AO
                                X                 Y                 Z
Electronic contribution:      4.262751698       6.609054784      -0.411066954
Nuclear contribution   :     -4.922119374      -7.156735203       1.327231180
                        -----------------------------------------
Total Dipole Moment    :     -0.659367676      -0.547680419       0.916164226
                        -----------------------------------------
Magnitude (a.u.)       :      1.254622039
Magnitude (Debye)      :      3.188995791

VIBRATIONAL FREQUENCIES
-----------------------

Scaling factor for frequencies =  1.000000000  (already applied!)

     0:       0.00 cm**-1
     1:       0.00 cm**-1
     2:       0.00 cm**-1
     3:       0.00 cm**-1
     4:       0.00 cm**-1
     5:       0.00 cm**-1
     6:      85.50 cm**-1
     7:     173.31 cm**-1
     8:     191.88 cm**-1
     9:     208.11 cm**-1
    10:     213.33 cm**-1
    11:     257.09 cm**-1
    12:     290.34 cm**-1
    13:     309.60 cm**-1
    14:     363.14 cm**-1
    15:     383.12 cm**-1
    16:     406.76 cm**-1
    17:     419.77 cm**-1
    18:     459.00 cm**-1
    19:     502.08 cm**-1
    20:     561.89 cm**-1
    21:     594.95 cm**-1
    22:     645.91 cm**-1
    23:     685.77 cm**-1
    24:     728.83 cm**-1
    25:     863.79 cm**-1
    26:     880.40 cm**-1
    27:     897.96 cm**-1
    28:     921.63 cm**-1
    29:     957.63 cm**-1
    30:     983.07 cm**-1
    31:     985.13 cm**-1
    32:    1008.61 cm**-1
    33:    1038.84 cm**-1
    34:    1044.00 cm**-1
    35:    1068.69 cm**-1
    36:    1080.98 cm**-1
    37:    1101.74 cm**-1
    38:    1142.44 cm**-1
    39:    1152.71 cm**-1
    40:    1189.93 cm**-1
    41:    1218.31 cm**-1
    42:    1244.41 cm**-1
    43:    1247.99 cm**-1
    44:    1269.83 cm**-1
    45:    1284.97 cm**-1
    46:    1299.61 cm**-1
    47:    1336.72 cm**-1
    48:    1344.26 cm**-1
    49:    1369.42 cm**-1
    50:    1381.35 cm**-1
    51:    1401.32 cm**-1
    52:    1416.00 cm**-1
    53:    1438.97 cm**-1
    54:    1442.82 cm**-1
    55:    1457.75 cm**-1
    56:    1486.41 cm**-1
    57:    1514.11 cm**-1
    58:    1517.46 cm**-1
    59:    1526.56 cm**-1
    60:    1532.30 cm**-1
    61:    1540.49 cm**-1
    62:    1545.93 cm**-1
    63:    1549.82 cm**-1
    64:    1864.56 cm**-1
    65:    3073.84 cm**-1
    66:    3095.90 cm**-1
    67:    3100.13 cm**-1
    68:    3114.01 cm**-1
    69:    3118.15 cm**-1
    70:    3120.89 cm**-1
    71:    3128.80 cm**-1
    72:    3136.48 cm**-1
    73:    3175.36 cm**-1
    74:    3175.69 cm**-1
    75:    3181.06 cm**-1
    76:    3200.95 cm**-1
    77:    3207.65 cm**-1
    78:    3210.10 cm**-1
    79:    3214.79 cm**-1
    80:    3225.56 cm**-1

IR SPECTRUM
-----------

 Mode   freq       eps      Int      T**2         TX        TY        TZ
       cm**-1   L/(mol*cm) km/mol    a.u.
----------------------------------------------------------------------------
  6:     85.50   0.000949    4.80  0.003463  (-0.035491 -0.028894 -0.036993)
  7:    173.31   0.000031    0.16  0.000056  (-0.004552 -0.003006 -0.005105)
  8:    191.88   0.000019    0.09  0.000031  ( 0.003535  0.002841  0.003153)
  9:    208.11   0.000004    0.02  0.000007  ( 0.002202  0.000986  0.000881)
 10:    213.33   0.000001    0.01  0.000002  ( 0.001314 -0.000580  0.000182)
 11:    257.09   0.000209    1.06  0.000254  ( 0.002189  0.012497  0.009655)
 12:    290.34   0.000578    2.92  0.000621  (-0.003563  0.024648  0.000905)
 13:    309.60   0.000133    0.67  0.000134  (-0.006952  0.001197 -0.009157)
 14:    363.14   0.000034    0.17  0.000029  ( 0.002826 -0.004265 -0.001706)
 15:    383.12   0.000248    1.25  0.000202  (-0.013778 -0.000966  0.003311)
 16:    406.76   0.000476    2.41  0.000365  ( 0.013663 -0.013062  0.002862)
 17:    419.77   0.000136    0.69  0.000101  (-0.003792 -0.009141  0.001805)
 18:    459.00   0.001227    6.20  0.000834  ( 0.019058 -0.021038 -0.005326)
 19:    502.08   0.000528    2.67  0.000328  (-0.013438  0.006065 -0.010525)
 20:    561.89   0.000104    0.52  0.000058  (-0.002256  0.007124  0.001329)
 21:    594.95   0.000300    1.52  0.000157  (-0.000881 -0.012511  0.000181)
 22:    645.91   0.000177    0.89  0.000085  (-0.005559 -0.007386 -0.000234)
 23:    685.77   0.000151    0.76  0.000069  (-0.001761  0.002217 -0.007788)
 24:    728.83   0.000394    1.99  0.000169  (-0.007144  0.007710 -0.007643)
 25:    863.79   0.000225    1.14  0.000081  ( 0.002647 -0.008613  0.000262)
 26:    880.40   0.000324    1.64  0.000115  (-0.003203 -0.003298 -0.009679)
 27:    897.96   0.000797    4.03  0.000277  ( 0.016150  0.003260 -0.002326)
 28:    921.63   0.000671    3.39  0.000227  (-0.009060  0.011936 -0.001583)
 29:    957.63   0.001095    5.53  0.000357  (-0.001806  0.000378 -0.018800)
 30:    983.07   0.000139    0.70  0.000044  (-0.000996 -0.004241  0.005023)
 31:    985.13   0.000225    1.14  0.000071  (-0.002093 -0.000141  0.008181)
 32:   1008.61   0.001019    5.15  0.000315  ( 0.014712  0.007771 -0.006190)
 33:   1038.84   0.000438    2.21  0.000132  (-0.010610  0.002191  0.003766)
 34:   1044.00   0.001359    6.87  0.000406  (-0.004567 -0.016462  0.010689)
 35:   1068.69   0.000478    2.42  0.000140  ( 0.005954 -0.009166 -0.004498)
 36:   1080.98   0.000053    0.27  0.000015  (-0.000772 -0.003248  0.002030)
 37:   1101.74   0.002077   10.50  0.000588  (-0.016331  0.017631  0.003281)
 38:   1142.44   0.001988   10.05  0.000543  (-0.013691  0.018859  0.000065)
 39:   1152.71   0.001220    6.17  0.000330  (-0.015502  0.009353  0.001598)
 40:   1189.93   0.000456    2.31  0.000120  ( 0.000376 -0.010545  0.002880)
 41:   1218.31   0.000793    4.01  0.000203  ( 0.010720 -0.009391  0.000359)
 42:   1244.41   0.000649    3.28  0.000163  (-0.009745  0.008012 -0.001895)
 43:   1247.99   0.002953   14.93  0.000738  ( 0.019753 -0.018661  0.000292)
 44:   1269.83   0.000949    4.79  0.000233  (-0.007761  0.012610  0.003731)
 45:   1284.97   0.000211    1.06  0.000051  ( 0.000475  0.005197  0.004891)
 46:   1299.61   0.000075    0.38  0.000018  ( 0.002658  0.003286  0.000382)
 47:   1336.72   0.000612    3.09  0.000143  (-0.010941  0.004805  0.000164)
 48:   1344.26   0.000591    2.99  0.000137  ( 0.009864  0.003479  0.005275)
 49:   1369.42   0.000301    1.52  0.000069  ( 0.004073  0.006946 -0.001962)
 50:   1381.35   0.000491    2.48  0.000111  ( 0.003185 -0.006927 -0.007267)
 51:   1401.32   0.002809   14.20  0.000626  ( 0.017679 -0.017153  0.004334)
 52:   1416.00   0.001510    7.63  0.000333  ( 0.005188 -0.017364 -0.002113)
 53:   1438.97   0.001973    9.97  0.000428  (-0.013968  0.010228  0.011326)
 54:   1442.82   0.002629   13.29  0.000569  (-0.009917 -0.007668  0.020286)
 55:   1457.75   0.002610   13.19  0.000559  ( 0.012668  0.014208  0.014018)
 56:   1486.41   0.003145   15.89  0.000660  ( 0.009664 -0.023050  0.005957)
 57:   1514.11   0.000466    2.36  0.000096  (-0.009415  0.002346  0.001384)
 58:   1517.46   0.000857    4.33  0.000176  ( 0.000637  0.006728 -0.011431)
 59:   1526.56   0.000856    4.33  0.000175  ( 0.008789  0.009483  0.002797)
 60:   1532.30   0.001849    9.34  0.000377  ( 0.007264 -0.009665  0.015177)
 61:   1540.49   0.000568    2.87  0.000115  (-0.008365  0.003732  0.005584)
 62:   1545.93   0.002515   12.71  0.000508  (-0.014864  0.015809  0.006069)
 63:   1549.82   0.002756   13.93  0.000555  ( 0.014468  0.002278  0.018449)
 64:   1864.56   0.043674  220.71  0.007309  ( 0.045572  0.038382 -0.061315)
 65:   3073.84   0.002126   10.74  0.000216  (-0.010311 -0.009586 -0.004197)
 66:   3095.90   0.003783   19.12  0.000381  ( 0.003025  0.004719 -0.018707)
 67:   3100.13   0.008756   44.25  0.000881  ( 0.023815  0.016772  0.005740)
 68:   3114.01   0.002339   11.82  0.000234  (-0.008152 -0.010900  0.007009)
 69:   3118.15   0.003001   15.16  0.000300  (-0.010474  0.011893  0.007010)
 70:   3120.89   0.006624   33.48  0.000662  (-0.007791 -0.018987 -0.015529)
 71:   3128.80   0.013176   66.58  0.001314  ( 0.022691 -0.026504  0.009838)
 72:   3136.48   0.004872   24.62  0.000485  (-0.010547  0.011896  0.015231)
 73:   3175.36   0.000572    2.89  0.000056  (-0.001336  0.005235  0.005195)
 74:   3175.69   0.001204    6.09  0.000118  (-0.009279  0.003105 -0.004754)
 75:   3181.06   0.005628   28.44  0.000552  (-0.015675  0.017502  0.000233)
 76:   3200.95   0.002177   11.00  0.000212  (-0.011077 -0.008620 -0.003897)
 77:   3207.65   0.002007   10.14  0.000195  (-0.011132 -0.000935 -0.008392)
 78:   3210.10   0.003571   18.05  0.000347  ( 0.010275  0.013023 -0.008484)
 79:   3214.79   0.005258   26.57  0.000510  ( 0.006014  0.003979 -0.021410)
 80:   3225.56   0.001003    5.07  0.000097  ( 0.008684  0.003446  0.003127)

--------------------------
THERMOCHEMISTRY AT 298.15K
--------------------------

Temperature         ...   298.15 K
Pressure            ...     1.00 atm
Total Mass          ...   152.24 AMU
Quasi RRHO          ...     True
Cut-Off Frequency   ...     1.00 cm^-1

Throughout the following assumptions are being made:
  (1) The electronic state is orbitally nondegenerate
  (2) There are no thermally accessible electronically excited states
  (3) Hindered rotations indicated by low frequency modes are not
      treated as such but are treated as vibrations and this may
      cause some error
  (4) All equations used are the standard statistical mechanics
      equations for an ideal gas
  (5) All vibrations are strictly harmonic

freq.      85.50  E(vib)   ...       0.48
freq.     173.31  E(vib)   ...       0.38
freq.     191.88  E(vib)   ...       0.36
freq.     208.11  E(vib)   ...       0.34
freq.     213.33  E(vib)   ...       0.34
freq.     257.09  E(vib)   ...       0.30
freq.     290.34  E(vib)   ...       0.27
freq.     309.60  E(vib)   ...       0.26
freq.     363.14  E(vib)   ...       0.22
freq.     383.12  E(vib)   ...       0.20
freq.     406.76  E(vib)   ...       0.19
freq.     419.77  E(vib)   ...       0.18
freq.     459.00  E(vib)   ...       0.16
freq.     502.08  E(vib)   ...       0.14
freq.     561.89  E(vib)   ...       0.11
freq.     594.95  E(vib)   ...       0.10
freq.     645.91  E(vib)   ...       0.09
freq.     685.77  E(vib)   ...       0.07
freq.     728.83  E(vib)   ...       0.06
freq.     863.79  E(vib)   ...       0.04
freq.     880.40  E(vib)   ...       0.04
freq.     897.96  E(vib)   ...       0.03
freq.     921.63  E(vib)   ...       0.03
freq.     957.63  E(vib)   ...       0.03
freq.     983.07  E(vib)   ...       0.02
freq.     985.13  E(vib)   ...       0.02
freq.    1008.61  E(vib)   ...       0.02
freq.    1038.84  E(vib)   ...       0.02
freq.    1044.00  E(vib)   ...       0.02
freq.    1068.69  E(vib)   ...       0.02
freq.    1080.98  E(vib)   ...       0.02
freq.    1101.74  E(vib)   ...       0.02
freq.    1142.44  E(vib)   ...       0.01
freq.    1152.71  E(vib)   ...       0.01
freq.    1189.93  E(vib)   ...       0.01
freq.    1218.31  E(vib)   ...       0.01
freq.    1244.41  E(vib)   ...       0.01
freq.    1247.99  E(vib)   ...       0.01
freq.    1269.83  E(vib)   ...       0.01
freq.    1284.97  E(vib)   ...       0.01
freq.    1299.61  E(vib)   ...       0.01
freq.    1336.72  E(vib)   ...       0.01
freq.    1344.26  E(vib)   ...       0.01
freq.    1369.42  E(vib)   ...       0.01
freq.    1381.35  E(vib)   ...       0.01
freq.    1401.32  E(vib)   ...       0.00
freq.    1416.00  E(vib)   ...       0.00
freq.    1438.97  E(vib)   ...       0.00
freq.    1442.82  E(vib)   ...       0.00
freq.    1457.75  E(vib)   ...       0.00
freq.    1486.41  E(vib)   ...       0.00
freq.    1514.11  E(vib)   ...       0.00
freq.    1517.46  E(vib)   ...       0.00
freq.    1526.56  E(vib)   ...       0.00
freq.    1532.30  E(vib)   ...       0.00
freq.    1540.49  E(vib)   ...       0.00
freq.    1545.93  E(vib)   ...       0.00
freq.    1549.82  E(vib)   ...       0.00
freq.    1864.56  E(vib)   ...       0.00
freq.    3073.84  E(vib)   ...       0.00
freq.    3095.90  E(vib)   ...       0.00
freq.    3100.13  E(vib)   ...       0.00
freq.    3114.01  E(vib)   ...       0.00
freq.    3118.15  E(vib)   ...       0.00
freq.    3120.89  E(vib)   ...       0.00
freq.    3128.80  E(vib)   ...       0.00
freq.    3136.48  E(vib)   ...       0.00
freq.    3175.36  E(vib)   ...       0.00
freq.    3175.69  E(vib)   ...       0.00
freq.    3181.06  E(vib)   ...       0.00
freq.    3200.95  E(vib)   ...       0.00
freq.    3207.65  E(vib)   ...       0.00
freq.    3210.10  E(vib)   ...       0.00
freq.    3214.79  E(vib)   ...       0.00
freq.    3225.56  E(vib)   ...       0.00

------------
INNER ENERGY
------------

The inner energy is: U= E(el) + E(ZPE) + E(vib) + E(rot) + E(trans)
    E(el)   - is the total energy from the electronic structure calculation
              = E(kin-el) + E(nuc-el) + E(el-el) + E(nuc-nuc)
    E(ZPE)  - the the zero temperature vibrational energy from the frequency calculation
    E(vib)  - the the finite temperature correction to E(ZPE) due to population
              of excited vibrational states
    E(rot)  - is the rotational thermal energy
    E(trans)- is the translational thermal energy

Summary of contributions to the inner energy U:
Electronic energy                ...    -82.67650977 Eh
Zero point energy                ...      0.24720087 Eh     155.12 kcal/mol
Thermal vibrational correction   ...      0.00755951 Eh       4.74 kcal/mol
Thermal rotational correction    ...      0.00141627 Eh       0.89 kcal/mol
Thermal translational correction ...      0.00141627 Eh       0.89 kcal/mol
-----------------------------------------------------------------------
Total thermal energy                    -82.41891684 Eh

Summary of corrections to the electronic energy:
(perhaps to be used in another calculation)
Total thermal correction                  0.01039205 Eh       6.52 kcal/mol
Non-thermal (ZPE) correction              0.24720087 Eh     155.12 kcal/mol
-----------------------------------------------------------------------
Total correction                          0.25759292 Eh     161.64 kcal/mol

--------
ENTHALPY
--------

The enthalpy is H = U + kB*T
                kB is Boltzmann's constant
Total thermal energy              ...    -82.41891684 Eh
Thermal Enthalpy correction       ...      0.00094421 Eh       0.59 kcal/mol
-----------------------------------------------------------------------
Total Enthalpy                    ...    -82.41797264 Eh

Note: Only C1 symmetry has been detected, increase convergence thresholds
      if your molecule has a higher symmetry. Symmetry factor of 1.0 is
      used for the rotational entropy correction.

Note: Rotational entropy computed according to Herzberg
Infrared and Raman Spectra, Chapter V,1, Van Nostrand Reinhold, 1945
Point Group:  C1, Symmetry Number:   1
Rotational constants in cm-1:     0.056991     0.034096     0.030924

Vibrational entropy computed according to the QRRHO of S. Grimme
Chem.Eur.J. 2012 18 9955 using a reference frequency of 100.0 cm-1

-------
ENTROPY
-------

The entropy contributions are T*S = T*(S(el)+S(vib)+S(rot)+S(trans))
     S(el)   - electronic entropy
     S(vib)  - vibrational entropy
     S(rot)  - rotational entropy
     S(trans)- translational entropy

                             ****ORCA TERMINATED NORMALLY****
TOTAL RUN TIME: 0 days 0 hours 13 minutes 29 seconds 25 msec
