                         Program Version 6.0.1  -  RELEASE   -
|  1> ! wB97X-3c OPT FREQ TightSCF
|  2> %pal
|  3>   nprocs 40
|  4> end
|  5> * xyz 0 1
|  6> C      3.273321     0.238839     1.637380
|  7> C      2.270906     0.282258     0.534944
|  8> O      1.983245     1.385690    -0.003413
|  9> O      1.698634    -0.909721     0.077065
| 10> C      0.718270    -0.960726    -0.957366
| 11> C     -0.598196    -0.428513    -0.460320
| 12> C     -1.105810     0.790610    -0.940178
| 13> C     -2.321745     1.285031    -0.457566
| 14> C     -3.035799     0.569302     0.507496
| 15> C     -2.534337    -0.641601     0.992911
| 16> C     -1.318783    -1.139411     0.513107
| 17> H      4.295943     0.219809     1.206823
| 18> H      3.164787     1.132928     2.286966
| 19> H      3.119873    -0.671965     2.253277
| 20> H      0.584466    -2.018627    -1.267438
| 21> H      1.077127    -0.399995    -1.848364
| 22> H     -0.561478     1.358589    -1.684345
| 23> H     -2.709666     2.224097    -0.830606
| 24> H     -3.976346     0.953767     0.880337
| 25> H     -3.086654    -1.193752     1.742273
| 26> H     -0.937758    -2.076608     0.899856
| 27> *
| 28>
| 29>                          ****END OF INPUT****
 Total Charge           Charge          ....    0
 Multiplicity           Mult            ....    1
 Number of Electrons    NEL             ....   58
Dispersion correction           -0.024877556
FINAL SINGLE POINT ENERGY       -89.397793083080
Dispersion correction             ... done (  0.1 sec)
Dispersion correction           -0.025375941
FINAL SINGLE POINT ENERGY       -89.415424630273
Dispersion correction             ... done (  0.1 sec)
Dispersion correction           -0.025356588
FINAL SINGLE POINT ENERGY       -89.417011147252
Dispersion correction             ... done (  0.1 sec)
FINAL SINGLE POINT ENERGY       -89.417224262837
FINAL SINGLE POINT ENERGY       -89.417234606705
FINAL SINGLE POINT ENERGY       -89.417408059284
FINAL SINGLE POINT ENERGY       -89.417441975717
FINAL SINGLE POINT ENERGY       -89.417516232971
FINAL SINGLE POINT ENERGY       -89.417562935063
FINAL SINGLE POINT ENERGY       -89.417601540581
FINAL SINGLE POINT ENERGY       -89.417642313804
FINAL SINGLE POINT ENERGY       -89.417670168818
FINAL SINGLE POINT ENERGY       -89.417714714007
FINAL SINGLE POINT ENERGY       -89.417770396454
FINAL SINGLE POINT ENERGY       -89.417826386033
FINAL SINGLE POINT ENERGY       -89.417839343151
FINAL SINGLE POINT ENERGY       -89.417842274954
Dispersion correction             ... done (  0.1 sec)
Dispersion correction           -0.025267310
FINAL SINGLE POINT ENERGY       -89.417843073738
Dispersion correction             ... done (  0.1 sec)
Dispersion correction           -0.025266863
FINAL SINGLE POINT ENERGY       -89.417843274442
Dispersion correction             ... done (  0.1 sec)
                    ***********************HURRAY********************

CARTESIAN COORDINATES (ANGSTROEM)
---------------------------------
  C      3.273068    0.345623    1.518969
  C      2.341888    0.353463    0.350574
  O      2.164494    1.285198   -0.385968
  O      1.714385   -0.820643    0.221297
  C      0.735069   -0.926157   -0.821119
  C     -0.603694   -0.428495   -0.369886
  C     -1.029250    0.852860   -0.686655
  C     -2.263849    1.305926   -0.255334
  C     -3.080974    0.483199    0.499887
  C     -2.661264   -0.796433    0.822742
  C     -1.429010   -1.247918    0.387647
  H      3.931183   -0.517825    1.468669
  H      3.849128    1.263771    1.527864
  H      2.691619    0.265323    2.434982
  H      0.696549   -1.987296   -1.051301
  H      1.084700   -0.380297   -1.693335
  H     -0.380987    1.499282   -1.261536
  H     -2.587490    2.306057   -0.508421
  H     -4.045718    0.837718    0.835949
  H     -3.297298   -1.444156    1.410127
  H     -1.102547   -2.249198    0.637689

 Multiplicity           Mult            ....    1
 Number of Electrons    NEL             ....   58
 Basis Dimension        Dim             ....  193

ORBITAL ENERGIES
----------------

  NO   OCC          E(Eh)            E(eV)
   0   2.0000      -1.242182       -33.8015
   1   2.0000      -1.145063       -31.1588
   2   2.0000      -1.012086       -27.5403
   3   2.0000      -0.932703       -25.3801
   4   2.0000      -0.892411       -24.2837
   5   2.0000      -0.891862       -24.2688
   6   2.0000      -0.830970       -22.6119
   7   2.0000      -0.744419       -20.2567
   8   2.0000      -0.733482       -19.9591
   9   2.0000      -0.687188       -18.6993
  10   2.0000      -0.646046       -17.5798
  11   2.0000      -0.628023       -17.0894
  12   2.0000      -0.611218       -16.6321
  13   2.0000      -0.596114       -16.2211
  14   2.0000      -0.576899       -15.6982
  15   2.0000      -0.574291       -15.6273
  16   2.0000      -0.542644       -14.7661
  17   2.0000      -0.540257       -14.7011
  18   2.0000      -0.529299       -14.4030
  19   2.0000      -0.517621       -14.0852
  20   2.0000      -0.496212       -13.5026
  21   2.0000      -0.489497       -13.3199
  22   2.0000      -0.471537       -12.8312
  23   2.0000      -0.463731       -12.6188
  24   2.0000      -0.447964       -12.1897
  25   2.0000      -0.416221       -11.3260
  26   2.0000      -0.392250       -10.6737
  27   2.0000      -0.354253        -9.6397
  28   2.0000      -0.351724        -9.5709
  29   0.0000       0.056223         1.5299
  30   0.0000       0.065450         1.7810
  31   0.0000       0.083829         2.2811
  32   0.0000       0.094047         2.5591
  33   0.0000       0.097578         2.6552

MULLIKEN ATOMIC CHARGES
-----------------------
   0 C :   -0.063730
   1 C :    0.260001
   2 O :   -0.330823
   3 O :   -0.278628
   4 C :    0.108133
   5 C :   -0.082651
   6 C :    0.017820
   7 C :   -0.004998
   8 C :   -0.009392
   9 C :   -0.007815
  10 C :    0.014022
  11 H :    0.055998
  12 H :    0.056342
  13 H :    0.059608
  14 H :    0.049131
  15 H :    0.053474
  16 H :    0.032250
  17 H :    0.018293
  18 H :    0.018546
  19 H :    0.017953
  20 H :    0.016466
Sum of atomic charges:   -0.0000000

LOEWDIN ATOMIC CHARGES
----------------------
   0 C :   -0.082124
   1 C :   -0.052264
   2 O :   -0.142913
   3 O :   -0.014600
   4 C :   -0.018722
   5 C :   -0.047780
   6 C :   -0.022883
   7 C :   -0.042271
   8 C :   -0.042499
   9 C :   -0.045472
  10 C :   -0.031747
  11 H :    0.061191
  12 H :    0.061864
  13 H :    0.063345
  14 H :    0.059687
  15 H :    0.055050
  16 H :    0.052538
  17 H :    0.047937
  18 H :    0.047086
  19 H :    0.046833
  20 H :    0.047742

  Mayer bond orders larger than 0.100000
B(  0-C ,  1-C ) :   1.0399 B(  0-C , 11-H ) :   0.9749 B(  0-C , 12-H ) :   0.9875
B(  0-C , 13-H ) :   0.9713 B(  1-C ,  2-O ) :   1.9259 B(  1-C ,  3-O ) :   1.1403
B(  3-O ,  4-C ) :   0.8755 B(  4-C ,  5-C ) :   1.0212 B(  4-C , 14-H ) :   1.0074
B(  4-C , 15-H ) :   0.9949 B(  5-C ,  6-C ) :   1.4599 B(  5-C , 10-C ) :   1.4394
B(  6-C ,  7-C ) :   1.4486 B(  6-C , 16-H ) :   0.9815 B(  7-C ,  8-C ) :   1.4485
B(  7-C , 17-H ) :   0.9913 B(  8-C ,  9-C ) :   1.4432 B(  8-C , 18-H ) :   0.9929
B(  9-C , 10-C ) :   1.4582 B(  9-C , 19-H ) :   0.9908 B( 10-C , 20-H ) :   0.9865

Dispersion correction           -0.025266934
FINAL SINGLE POINT ENERGY       -89.417843294401

DIPOLE MOMENT
-------------

Method             : SCF
Type of density    : Electron Density
Multiplicity       :   1
Irrep              :   0
Energy             :   -89.3925763604525798 Eh
Relativity type    :
Basis              : AO
                                X                 Y                 Z
Electronic contribution:     -5.477081797      -0.026334230      -2.313557576
Nuclear contribution   :      5.351623143      -0.556461982       2.695407729
                        -----------------------------------------
Total Dipole Moment    :     -0.125458653      -0.582796213       0.381850153
                        -----------------------------------------
Magnitude (a.u.)       :      0.707955393
Magnitude (Debye)      :      1.799479602

VIBRATIONAL FREQUENCIES
-----------------------

Scaling factor for frequencies =  1.000000000  (already applied!)

     0:       0.00 cm**-1
     1:       0.00 cm**-1
     2:       0.00 cm**-1
     3:       0.00 cm**-1
     4:       0.00 cm**-1
     5:       0.00 cm**-1
     6:      25.56 cm**-1
     7:      54.83 cm**-1
     8:      69.94 cm**-1
     9:      86.58 cm**-1
    10:     172.00 cm**-1
    11:     238.60 cm**-1
    12:     312.51 cm**-1
    13:     375.12 cm**-1
    14:     419.98 cm**-1
    15:     446.07 cm**-1
    16:     514.23 cm**-1
    17:     601.67 cm**-1
    18:     634.58 cm**-1
    19:     646.10 cm**-1
    20:     681.07 cm**-1
    21:     725.78 cm**-1
    22:     787.37 cm**-1
    23:     861.86 cm**-1
    24:     880.02 cm**-1
    25:     882.76 cm**-1
    26:     966.58 cm**-1
    27:    1007.57 cm**-1
    28:    1016.83 cm**-1
    29:    1034.12 cm**-1
    30:    1043.60 cm**-1
    31:    1043.80 cm**-1
    32:    1080.53 cm**-1
    33:    1095.86 cm**-1
    34:    1099.62 cm**-1
    35:    1137.22 cm**-1
    36:    1195.69 cm**-1
    37:    1226.38 cm**-1
    38:    1273.48 cm**-1
    39:    1300.58 cm**-1
    40:    1329.80 cm**-1
    41:    1364.00 cm**-1
    42:    1391.77 cm**-1
    43:    1428.29 cm**-1
    44:    1456.84 cm**-1
    45:    1502.45 cm**-1
    46:    1508.87 cm**-1
    47:    1523.64 cm**-1
    48:    1528.32 cm**-1
    49:    1575.59 cm**-1
    50:    1701.03 cm**-1
    51:    1723.32 cm**-1
    52:    1875.08 cm**-1
    53:    3137.05 cm**-1
    54:    3155.21 cm**-1
    55:    3224.99 cm**-1
    56:    3232.36 cm**-1
    57:    3242.96 cm**-1
    58:    3251.38 cm**-1
    59:    3261.72 cm**-1
    60:    3266.17 cm**-1
    61:    3270.79 cm**-1
    62:    3277.71 cm**-1

IR SPECTRUM
-----------

 Mode   freq       eps      Int      T**2         TX        TY        TZ
       cm**-1   L/(mol*cm) km/mol    a.u.
----------------------------------------------------------------------------
  6:     25.56   0.000117    0.59  0.001434  ( 0.017676 -0.014116 -0.030375)
  7:     54.83   0.000413    2.09  0.002353  (-0.033977  0.017502  0.029867)
  8:     69.94   0.000146    0.74  0.000650  ( 0.024521  0.006623  0.002109)
  9:     86.58   0.000624    3.15  0.002248  (-0.040135  0.001287  0.025208)
 10:    172.00   0.000297    1.50  0.000538  (-0.022345  0.006191  0.000785)
 11:    238.60   0.001230    6.21  0.001608  (-0.032083 -0.023940 -0.002380)
 12:    312.51   0.000728    3.68  0.000727  ( 0.011311 -0.023903 -0.005247)
 13:    375.12   0.001019    5.15  0.000848  (-0.017299 -0.023124  0.003736)
 14:    419.98   0.000001    0.00  0.000000  ( 0.000022  0.000609  0.000349)
 15:    446.07   0.000481    2.43  0.000337  (-0.016366 -0.005660 -0.006060)
 16:    514.23   0.003283   16.59  0.001992  ( 0.035058  0.011419  0.025152)
 17:    601.67   0.001241    6.27  0.000644  ( 0.009975  0.011707  0.020174)
 18:    634.58   0.003136   15.85  0.001542  ( 0.011446 -0.016513 -0.033741)
 19:    646.10   0.000058    0.29  0.000028  ( 0.003976  0.003069  0.001647)
 20:    681.07   0.001667    8.42  0.000764  ( 0.021465 -0.013337 -0.011185)
 21:    725.78   0.011545   58.34  0.004964  ( 0.028678  0.023541  0.059894)
 22:    787.37   0.006461   32.65  0.002561  ( 0.026402  0.009164  0.042186)
 23:    861.86   0.001589    8.03  0.000575  ( 0.022664 -0.007248 -0.002999)
 24:    880.02   0.000669    3.38  0.000237  (-0.000456 -0.013564  0.007276)
 25:    882.76   0.001274    6.44  0.000450  ( 0.000072  0.019353 -0.008699)
 26:    966.58   0.001233    6.23  0.000398  ( 0.018113  0.001360  0.008247)
 27:   1007.57   0.001327    6.71  0.000411  ( 0.010672 -0.011526  0.012819)
 28:   1016.83   0.000044    0.22  0.000014  (-0.000068 -0.003048  0.002084)
 29:   1034.12   0.000032    0.16  0.000010  (-0.002722 -0.000613 -0.001342)
 30:   1043.60   0.000545    2.75  0.000163  ( 0.008362  0.009337 -0.002409)
 31:   1043.80   0.000239    1.21  0.000071  (-0.000133 -0.007610  0.003674)
 32:   1080.53   0.002531   12.79  0.000731  ( 0.026886  0.002190  0.001861)
 33:   1095.86   0.002857   14.44  0.000814  (-0.001174  0.014007  0.024819)
 34:   1099.62   0.020600  104.10  0.005846  (-0.065971 -0.025005 -0.029473)
 35:   1137.22   0.000942    4.76  0.000259  (-0.000127 -0.014493  0.006967)
 36:   1195.69   0.000046    0.23  0.000012  (-0.000144  0.003263 -0.001127)
 37:   1226.38   0.000201    1.02  0.000051  ( 0.006639  0.002160  0.001569)
 38:   1273.48   0.002144   10.84  0.000525  (-0.006938  0.020094  0.008572)
 39:   1300.58   0.023064  116.55  0.005534  ( 0.062009  0.034500  0.022329)
 40:   1329.80   0.052498  265.30  0.012320  (-0.091605 -0.056783 -0.026529)
 41:   1364.00   0.003560   17.99  0.000815  (-0.018276 -0.021856 -0.001692)
 42:   1391.77   0.001073    5.42  0.000241  (-0.012979 -0.007271 -0.004380)
 43:   1428.29   0.007183   36.30  0.001569  (-0.037322 -0.004437 -0.012522)
 44:   1456.84   0.019339   97.73  0.004143  ( 0.037987  0.034934  0.038460)
 45:   1502.45   0.003623   18.31  0.000752  (-0.006897  0.019740 -0.017755)
 46:   1508.87   0.002740   13.85  0.000567  ( 0.019237 -0.005718 -0.012807)
 47:   1523.64   0.004023   20.33  0.000824  (-0.013776 -0.012718 -0.021736)
 48:   1528.32   0.001721    8.70  0.000351  (-0.004111  0.008488 -0.016202)
 49:   1575.59   0.000757    3.82  0.000150  (-0.011849  0.002877  0.001083)
 50:   1701.03   0.000117    0.59  0.000022  (-0.000733  0.004114 -0.002011)
 51:   1723.32   0.000007    0.03  0.000001  (-0.000005 -0.000334 -0.001052)
 52:   1875.08   0.051029  257.88  0.008493  (-0.001285 -0.076331  0.051618)
 53:   3137.05   0.000344    1.74  0.000034  (-0.004155  0.000752 -0.004045)
 54:   3155.21   0.004695   23.73  0.000464  (-0.000890  0.013845  0.016489)
 55:   3224.99   0.000279    1.41  0.000027  (-0.000914 -0.004561  0.002319)
 56:   3232.36   0.000092    0.46  0.000009  (-0.002796  0.000926 -0.000457)
 57:   3242.96   0.000498    2.52  0.000048  (-0.004227  0.005478  0.000287)
 58:   3251.38   0.000183    0.92  0.000018  ( 0.003606 -0.001864 -0.001025)
 59:   3261.72   0.001742    8.80  0.000167  (-0.003234  0.012350 -0.001919)
 60:   3266.17   0.000204    1.03  0.000020  (-0.003378 -0.001611 -0.002348)
 61:   3270.79   0.001707    8.63  0.000163  ( 0.007391  0.006849 -0.007833)
 62:   3277.71   0.001228    6.21  0.000117  (-0.009841  0.004449  0.000525)

--------------------------
THERMOCHEMISTRY AT 298.15K
--------------------------

Temperature         ...   298.15 K
Pressure            ...     1.00 atm
Total Mass          ...   150.18 AMU
Quasi RRHO          ...     True
Cut-Off Frequency   ...     1.00 cm^-1

Throughout the following assumptions are being made:
  (1) The electronic state is orbitally nondegenerate
  (2) There are no thermally accessible electronically excited states
  (3) Hindered rotations indicated by low frequency modes are not
      treated as such but are treated as vibrations and this may
      cause some error
  (4) All equations used are the standard statistical mechanics
      equations for an ideal gas
  (5) All vibrations are strictly harmonic

freq.      25.56  E(vib)   ...       0.56
freq.      54.83  E(vib)   ...       0.52
freq.      69.94  E(vib)   ...       0.50
freq.      86.58  E(vib)   ...       0.48
freq.     172.00  E(vib)   ...       0.38
freq.     238.60  E(vib)   ...       0.32
freq.     312.51  E(vib)   ...       0.25
freq.     375.12  E(vib)   ...       0.21
freq.     419.98  E(vib)   ...       0.18
freq.     446.07  E(vib)   ...       0.17
freq.     514.23  E(vib)   ...       0.13
freq.     601.67  E(vib)   ...       0.10
freq.     634.58  E(vib)   ...       0.09
freq.     646.10  E(vib)   ...       0.09
freq.     681.07  E(vib)   ...       0.08
freq.     725.78  E(vib)   ...       0.06
freq.     787.37  E(vib)   ...       0.05
freq.     861.86  E(vib)   ...       0.04
freq.     880.02  E(vib)   ...       0.04
freq.     882.76  E(vib)   ...       0.04
freq.     966.58  E(vib)   ...       0.03
freq.    1007.57  E(vib)   ...       0.02
freq.    1016.83  E(vib)   ...       0.02
freq.    1034.12  E(vib)   ...       0.02
freq.    1043.60  E(vib)   ...       0.02
freq.    1043.80  E(vib)   ...       0.02
freq.    1080.53  E(vib)   ...       0.02
freq.    1095.86  E(vib)   ...       0.02
freq.    1099.62  E(vib)   ...       0.02
freq.    1137.22  E(vib)   ...       0.01
freq.    1195.69  E(vib)   ...       0.01
freq.    1226.38  E(vib)   ...       0.01
freq.    1273.48  E(vib)   ...       0.01
freq.    1300.58  E(vib)   ...       0.01
freq.    1329.80  E(vib)   ...       0.01
freq.    1364.00  E(vib)   ...       0.01
freq.    1391.77  E(vib)   ...       0.00
freq.    1428.29  E(vib)   ...       0.00
freq.    1456.84  E(vib)   ...       0.00
freq.    1502.45  E(vib)   ...       0.00
freq.    1508.87  E(vib)   ...       0.00
freq.    1523.64  E(vib)   ...       0.00
freq.    1528.32  E(vib)   ...       0.00
freq.    1575.59  E(vib)   ...       0.00
freq.    1701.03  E(vib)   ...       0.00
freq.    1723.32  E(vib)   ...       0.00
freq.    1875.08  E(vib)   ...       0.00
freq.    3137.05  E(vib)   ...       0.00
freq.    3155.21  E(vib)   ...       0.00
freq.    3224.99  E(vib)   ...       0.00
freq.    3232.36  E(vib)   ...       0.00
freq.    3242.96  E(vib)   ...       0.00
freq.    3251.38  E(vib)   ...       0.00
freq.    3261.72  E(vib)   ...       0.00
freq.    3266.17  E(vib)   ...       0.00
freq.    3270.79  E(vib)   ...       0.00
freq.    3277.71  E(vib)   ...       0.00

------------
INNER ENERGY
------------

The inner energy is: U= E(el) + E(ZPE) + E(vib) + E(rot) + E(trans)
    E(el)   - is the total energy from the electronic structure calculation
              = E(kin-el) + E(nuc-el) + E(el-el) + E(nuc-nuc)
    E(ZPE)  - the the zero temperature vibrational energy from the frequency calculation
    E(vib)  - the the finite temperature correction to E(ZPE) due to population
              of excited vibrational states
    E(rot)  - is the rotational thermal energy
    E(trans)- is the translational thermal energy

Summary of contributions to the inner energy U:
Electronic energy                ...    -89.41784329 Eh
Zero point energy                ...      0.17580134 Eh     110.32 kcal/mol
Thermal vibrational correction   ...      0.00723353 Eh       4.54 kcal/mol
Thermal rotational correction    ...      0.00141627 Eh       0.89 kcal/mol
Thermal translational correction ...      0.00141627 Eh       0.89 kcal/mol
-----------------------------------------------------------------------
Total thermal energy                    -89.23197588 Eh

Summary of corrections to the electronic energy:
(perhaps to be used in another calculation)
Total thermal correction                  0.01006608 Eh       6.32 kcal/mol
Non-thermal (ZPE) correction              0.17580134 Eh     110.32 kcal/mol
-----------------------------------------------------------------------
Total correction                          0.18586741 Eh     116.63 kcal/mol

--------
ENTHALPY
--------

The enthalpy is H = U + kB*T
                kB is Boltzmann's constant
Total thermal energy              ...    -89.23197588 Eh
Thermal Enthalpy correction       ...      0.00094421 Eh       0.59 kcal/mol
-----------------------------------------------------------------------
Total Enthalpy                    ...    -89.23103167 Eh

Note: Only C1 symmetry has been detected, increase convergence thresholds
      if your molecule has a higher symmetry. Symmetry factor of 1.0 is
      used for the rotational entropy correction.

Note: Rotational entropy computed according to Herzberg
Infrared and Raman Spectra, Chapter V,1, Van Nostrand Reinhold, 1945
Point Group:  C1, Symmetry Number:   1
Rotational constants in cm-1:     0.080739     0.021760     0.020100

Vibrational entropy computed according to the QRRHO of S. Grimme
Chem.Eur.J. 2012 18 9955 using a reference frequency of 100.0 cm-1

-------
ENTROPY
-------

The entropy contributions are T*S = T*(S(el)+S(vib)+S(rot)+S(trans))
     S(el)   - electronic entropy
     S(vib)  - vibrational entropy
     S(rot)  - rotational entropy
     S(trans)- translational entropy
The entropies will be listed as multiplied by the temperature to get
units of energy

Electronic entropy                ...      0.00000000 Eh      0.00 kcal/mol
Vibrational entropy               ...      0.01280977 Eh      8.04 kcal/mol
Rotational entropy                ...      0.01435034 Eh      9.00 kcal/mol
Translational entropy             ...      0.01944716 Eh     12.20 kcal/mol
-----------------------------------------------------------------------
Final entropy term                ...      0.04660727 Eh     29.25 kcal/mol

In case the symmetry of your molecule has not been determined correctly
or in case you have a reason to use a different symmetry number we print
out the resulting rotational entropy values for sn=1,12:

 non-linear molecules -----------------------------------
|  sn= 1 | S(rot)=       0.01435034 Eh      9.00 kcal/mol|
|  sn= 2 | S(rot)=       0.01369588 Eh      8.59 kcal/mol|
|  sn= 3 | S(rot)=       0.01331305 Eh      8.35 kcal/mol|

                             ****ORCA TERMINATED NORMALLY****
TOTAL RUN TIME: 0 days 0 hours 17 minutes 53 seconds 138 msec
