                         Program Version 6.0.1  -  RELEASE   -
|  1> ! wB97X-3c OPT FREQ TightSCF
|  2> %pal
|  3>   nprocs 40
|  4> end
|  5> * xyz 0 1
|  6> C     -2.035516    -0.829959    -1.027208
|  7> C     -2.316164     0.384875    -0.133194
|  8> C     -3.825321     0.556607     0.072965
|  9> C     -1.603122     0.249301     1.225143
| 10> O     -0.189551     0.148402     1.057082
| 11> C      0.632102     1.234027     0.732701
| 12> O      0.141391     2.392848     0.652030
| 13> C      2.081873     1.065182     0.493137
| 14> C      2.756046    -0.104176     0.483547
| 15> C      2.091090    -1.436687     0.702265
| 16> C      4.237082    -0.104772     0.212616
| 17> H     -2.559040    -0.718400    -2.000678
| 18> H     -2.382561    -1.765796    -0.538632
| 19> H     -0.947666    -0.914062    -1.233725
| 20> H     -1.937546     1.293085    -0.650678
| 21> H     -4.333659     0.688652    -0.906044
| 22> H     -4.255523    -0.331704     0.583883
| 23> H     -4.027298     1.458253     0.689797
| 24> H     -1.841264     1.117214     1.878880
| 25> H     -1.960650    -0.666947     1.742504
| 26> H      2.633051     1.979399     0.303783
| 27> H      1.648129    -1.480109     1.719276
| 28> H      2.827168    -2.264586     0.620062
| 29> H      1.308783    -1.604995    -0.067197
| 30> H      4.653528     0.921653     0.124049
| 31> H      4.765799    -0.620066     1.041946
| 32> H      4.438839    -0.647238    -0.734811
| 33> *
| 34>
| 35>                          ****END OF INPUT****
 Total Charge           Charge          ....    0
 Multiplicity           Mult            ....    1
 Number of Electrons    NEL             ....   64
Dispersion correction           -0.027655826
FINAL SINGLE POINT ENERGY       -93.037139188963
Dispersion correction             ... done (  0.1 sec)
Dispersion correction           -0.028188730
FINAL SINGLE POINT ENERGY       -93.055949126791
Dispersion correction             ... done (  0.1 sec)
Dispersion correction           -0.028228534
FINAL SINGLE POINT ENERGY       -93.057778922161
Dispersion correction             ... done (  0.1 sec)
FINAL SINGLE POINT ENERGY       -93.057946555058
FINAL SINGLE POINT ENERGY       -93.057951198431
FINAL SINGLE POINT ENERGY       -93.058149796553
FINAL SINGLE POINT ENERGY       -93.058156817768
Dispersion correction             ... done (  0.1 sec)
Dispersion correction           -0.028116906
FINAL SINGLE POINT ENERGY       -93.058161684095
Dispersion correction             ... done (  0.1 sec)
Dispersion correction           -0.028110927
FINAL SINGLE POINT ENERGY       -93.058162685235
Dispersion correction             ... done (  0.1 sec)
                    ***********************HURRAY********************

CARTESIAN COORDINATES (ANGSTROEM)
---------------------------------
  C     -2.076692   -0.832260   -1.056994
  C     -2.300258    0.385073   -0.177930
  C     -3.774371    0.587345    0.127134
  C     -1.538068    0.278132    1.127372
  O     -0.131905    0.127539    0.926580
  C      0.575380    1.244548    0.722595
  O      0.078463    2.342977    0.715373
  C      2.014504    1.032370    0.510454
  C      2.702575   -0.111112    0.494168
  C      2.131940   -1.482551    0.696896
  C      4.178778   -0.070452    0.260862
  H     -2.609304   -0.729586   -2.001968
  H     -2.440088   -1.738032   -0.567357
  H     -1.020800   -0.972681   -1.282119
  H     -1.930202    1.271450   -0.696916
  H     -4.347920    0.694350   -0.792488
  H     -4.182937   -0.265489    0.672612
  H     -3.938267    1.481676    0.727806
  H     -1.714950    1.153737    1.748522
  H     -1.836694   -0.616272    1.673523
  H      2.537102    1.965634    0.353446
  H      1.666091   -1.570531    1.675848
  H      2.912963   -2.235028    0.615530
  H      1.359596   -1.701984   -0.036259
  H      4.547755    0.942567    0.123084
  H      4.702455   -0.521998    1.104533
  H      4.434854   -0.659421   -0.620808

 Multiplicity           Mult            ....    1
 Number of Electrons    NEL             ....   64
 Basis Dimension        Dim             ....  223

ORBITAL ENERGIES
----------------

  NO   OCC          E(Eh)            E(eV)
   0   2.0000      -1.233878       -33.5755
   1   2.0000      -1.134119       -30.8610
   2   2.0000      -0.975273       -26.5385
   3   2.0000      -0.953536       -25.9470
   4   2.0000      -0.872470       -23.7411
   5   2.0000      -0.841756       -22.9054
   6   2.0000      -0.824705       -22.4414
   7   2.0000      -0.821962       -22.3667
   8   2.0000      -0.726699       -19.7745
   9   2.0000      -0.699342       -19.0301
  10   2.0000      -0.664209       -18.0740
  11   2.0000      -0.618985       -16.8434
  12   2.0000      -0.601610       -16.3706
  13   2.0000      -0.595492       -16.2042
  14   2.0000      -0.579706       -15.7746
  15   2.0000      -0.559924       -15.2363
  16   2.0000      -0.559360       -15.2210
  17   2.0000      -0.537040       -14.6136
  18   2.0000      -0.530937       -14.4475
  19   2.0000      -0.517183       -14.0733
  20   2.0000      -0.510319       -13.8865
  21   2.0000      -0.499126       -13.5819
  22   2.0000      -0.496649       -13.5145
  23   2.0000      -0.491165       -13.3653
  24   2.0000      -0.469595       -12.7783
  25   2.0000      -0.463809       -12.6209
  26   2.0000      -0.453852       -12.3499
  27   2.0000      -0.440747       -11.9933
  28   2.0000      -0.433167       -11.7871
  29   2.0000      -0.401417       -10.9231
  30   2.0000      -0.382604       -10.4112
  31   2.0000      -0.359326        -9.7778
  32   0.0000       0.042735         1.1629
  33   0.0000       0.080842         2.1998
  34   0.0000       0.092980         2.5301
  35   0.0000       0.105743         2.8774
  36   0.0000       0.114815         3.1243

MULLIKEN ATOMIC CHARGES
-----------------------
   0 C :   -0.034668
   1 C :   -0.084363
   2 C :   -0.059765
   3 C :    0.133563
   4 O :   -0.299378
   5 C :    0.235431
   6 O :   -0.345410
   7 C :   -0.005047
   8 C :   -0.074748
   9 C :   -0.033102
  10 C :   -0.043079
  11 H :    0.031126
  12 H :    0.023851
  13 H :    0.025573
  14 H :    0.056046
  15 H :    0.031743
  16 H :    0.023445
  17 H :    0.034500
  18 H :    0.053319
  19 H :    0.036747
  20 H :    0.027341
  21 H :    0.060785
  22 H :    0.027034
  23 H :    0.047824
  24 H :    0.033931
  25 H :    0.048916
  26 H :    0.048382
Sum of atomic charges:   -0.0000000

LOEWDIN ATOMIC CHARGES
----------------------
   0 C :   -0.106531
   1 C :   -0.083840
   2 C :   -0.104040
   3 C :   -0.020590
   4 O :   -0.005826
   5 C :   -0.065915
   6 O :   -0.151410
   7 C :   -0.057976
   8 C :   -0.006622
   9 C :   -0.098545
  10 C :   -0.099828
  11 H :    0.046008
  12 H :    0.041967
  13 H :    0.042006
  14 H :    0.052308
  15 H :    0.047731
  16 H :    0.042491
  17 H :    0.047604
  18 H :    0.052066
  19 H :    0.052347
  20 H :    0.053749
  21 H :    0.057600
  22 H :    0.047577
  23 H :    0.054380
  24 H :    0.052750
  25 H :    0.055421
  26 H :    0.055119

  Mayer bond orders larger than 0.100000
B(  0-C ,  1-C ) :   0.9925 B(  0-C , 11-H ) :   0.9961 B(  0-C , 12-H ) :   0.9892
B(  0-C , 13-H ) :   0.9958 B(  1-C ,  2-C ) :   1.0062 B(  1-C ,  3-C ) :   0.9762
B(  1-C , 14-H ) :   0.9859 B(  2-C , 15-H ) :   0.9929 B(  2-C , 16-H ) :   0.9894
B(  2-C , 17-H ) :   0.9935 B(  3-C ,  4-O ) :   0.8822 B(  3-C , 18-H ) :   1.0002
B(  3-C , 19-H ) :   1.0066 B(  4-O ,  5-C ) :   1.1477 B(  5-C ,  6-O ) :   1.8744
B(  5-C ,  7-C ) :   1.1373 B(  7-C ,  8-C ) :   1.8124 B(  7-C , 20-H ) :   0.9854
B(  8-C ,  9-C ) :   1.0369 B(  8-C , 10-C ) :   1.0329 B(  9-C , 21-H ) :   0.9682
B(  9-C , 22-H ) :   0.9892 B(  9-C , 23-H ) :   0.9732 B( 10-C , 24-H ) :   0.9903
B( 10-C , 25-H ) :   0.9735 B( 10-C , 26-H ) :   0.9736

Dispersion correction           -0.028102866
FINAL SINGLE POINT ENERGY       -93.058163849432

DIPOLE MOMENT
-------------

Method             : SCF
Type of density    : Electron Density
Multiplicity       :   1
Irrep              :   0
Energy             :   -93.0300609835945380 Eh
Relativity type    :
Basis              : AO
                                X                 Y                 Z
Electronic contribution:      5.638332957       7.145446667       3.379599090
Nuclear contribution   :     -5.336849219      -8.265687578      -3.432259891
                        -----------------------------------------
Total Dipole Moment    :      0.301483738      -1.120240911      -0.052660801
                        -----------------------------------------
Magnitude (a.u.)       :      1.161294666
Magnitude (Debye)      :      2.951776461

VIBRATIONAL FREQUENCIES
-----------------------

Scaling factor for frequencies =  1.000000000  (already applied!)

     0:       0.00 cm**-1
     1:       0.00 cm**-1
     2:       0.00 cm**-1
     3:       0.00 cm**-1
     4:       0.00 cm**-1
     5:       0.00 cm**-1
     6:      24.20 cm**-1
     7:      45.65 cm**-1
     8:      50.34 cm**-1
     9:      78.84 cm**-1
    10:     105.85 cm**-1
    11:     162.51 cm**-1
    12:     174.38 cm**-1
    13:     222.03 cm**-1
    14:     229.26 cm**-1
    15:     241.63 cm**-1
    16:     287.58 cm**-1
    17:     311.19 cm**-1
    18:     326.73 cm**-1
    19:     380.21 cm**-1
    20:     393.66 cm**-1
    21:     439.10 cm**-1
    22:     491.46 cm**-1
    23:     519.72 cm**-1
    24:     538.51 cm**-1
    25:     756.39 cm**-1
    26:     772.98 cm**-1
    27:     842.77 cm**-1
    28:     860.88 cm**-1
    29:     902.09 cm**-1
    30:     905.31 cm**-1
    31:     956.44 cm**-1
    32:     970.65 cm**-1
    33:     987.24 cm**-1
    34:    1005.35 cm**-1
    35:    1007.99 cm**-1
    36:    1022.88 cm**-1
    37:    1095.94 cm**-1
    38:    1125.73 cm**-1
    39:    1126.43 cm**-1
    40:    1189.94 cm**-1
    41:    1224.55 cm**-1
    42:    1231.71 cm**-1
    43:    1236.17 cm**-1
    44:    1331.48 cm**-1
    45:    1362.76 cm**-1
    46:    1379.38 cm**-1
    47:    1399.16 cm**-1
    48:    1409.43 cm**-1
    49:    1443.44 cm**-1
    50:    1445.31 cm**-1
    51:    1448.12 cm**-1
    52:    1451.80 cm**-1
    53:    1467.55 cm**-1
    54:    1509.55 cm**-1
    55:    1510.98 cm**-1
    56:    1512.99 cm**-1
    57:    1515.49 cm**-1
    58:    1519.10 cm**-1
    59:    1523.23 cm**-1
    60:    1525.58 cm**-1
    61:    1534.57 cm**-1
    62:    1542.50 cm**-1
    63:    1761.03 cm**-1
    64:    1842.45 cm**-1
    65:    3093.85 cm**-1
    66:    3096.76 cm**-1
    67:    3101.62 cm**-1
    68:    3121.07 cm**-1
    69:    3121.98 cm**-1
    70:    3130.96 cm**-1
    71:    3180.49 cm**-1
    72:    3181.93 cm**-1
    73:    3184.02 cm**-1
    74:    3195.82 cm**-1
    75:    3199.72 cm**-1
    76:    3200.99 cm**-1
    77:    3214.78 cm**-1
    78:    3217.62 cm**-1
    79:    3219.87 cm**-1
    80:    3264.11 cm**-1

IR SPECTRUM
-----------

 Mode   freq       eps      Int      T**2         TX        TY        TZ
       cm**-1   L/(mol*cm) km/mol    a.u.
----------------------------------------------------------------------------
  6:     24.20   0.000034    0.17  0.000444  (-0.007960 -0.002802  0.019304)
  7:     45.65   0.000399    2.02  0.002730  (-0.013409 -0.011208 -0.049245)
  8:     50.34   0.000098    0.49  0.000606  (-0.008326 -0.005944  0.022392)
  9:     78.84   0.000215    1.09  0.000850  (-0.018041 -0.017954 -0.014229)
 10:    105.85   0.000058    0.30  0.000172  ( 0.008682  0.007426  0.006461)
 11:    162.51   0.000097    0.49  0.000186  ( 0.009081 -0.008944  0.004894)
 12:    174.38   0.000017    0.08  0.000030  (-0.001197 -0.003843 -0.003690)
 13:    222.03   0.000012    0.06  0.000017  (-0.003273 -0.001472  0.002013)
 14:    229.26   0.000023    0.12  0.000032  (-0.002833 -0.000495  0.004828)
 15:    241.63   0.000105    0.53  0.000136  (-0.009679 -0.005420  0.003614)
 16:    287.58   0.000747    3.77  0.000810  ( 0.020071  0.011044  0.016899)
 17:    311.19   0.000096    0.49  0.000097  ( 0.002840 -0.009409  0.000405)
 18:    326.73   0.001354    6.84  0.001293  ( 0.021720  0.026945 -0.009752)
 19:    380.21   0.000508    2.57  0.000417  (-0.017866  0.009007  0.004036)
 20:    393.66   0.000642    3.24  0.000509  ( 0.022496  0.001601  0.000468)
 21:    439.10   0.000605    3.06  0.000430  ( 0.017281  0.010609  0.004308)
 22:    491.46   0.001439    7.27  0.000914  (-0.010516 -0.006280 -0.027637)
 23:    519.72   0.000941    4.76  0.000565  ( 0.010511  0.007972 -0.019778)
 24:    538.51   0.000369    1.87  0.000214  (-0.014590  0.001041  0.000215)
 25:    756.39   0.000285    1.44  0.000118  (-0.000585  0.002555  0.010525)
 26:    772.98   0.001011    5.11  0.000408  (-0.019563  0.000159 -0.005040)
 27:    842.77   0.002454   12.40  0.000909  (-0.013022  0.027095  0.002262)
 28:    860.88   0.000688    3.48  0.000249  ( 0.005296  0.005378 -0.013867)
 29:    902.09   0.001877    9.49  0.000649  (-0.011917 -0.007151 -0.021359)
 30:    905.31   0.005323   26.90  0.001835  (-0.005841 -0.001099 -0.042422)
 31:    956.44   0.000266    1.35  0.000087  ( 0.007191 -0.003508 -0.004783)
 32:    970.65   0.001614    8.15  0.000519  (-0.012363  0.017411 -0.007923)
 33:    987.24   0.000402    2.03  0.000127  ( 0.004980 -0.000243 -0.010110)
 34:   1005.35   0.000420    2.12  0.000131  (-0.001331  0.000218 -0.011344)
 35:   1007.99   0.000382    1.93  0.000118  (-0.005394 -0.006065 -0.007234)
 36:   1022.88   0.000925    4.67  0.000282  ( 0.011900 -0.011710 -0.001834)
 37:   1095.94   0.004856   24.54  0.001383  ( 0.036924  0.004003  0.001853)
 38:   1125.73   0.018013   91.03  0.004993  ( 0.068507  0.015932 -0.006805)
 39:   1126.43   0.004864   24.58  0.001348  ( 0.033671  0.007794  0.012375)
 40:   1189.94   0.000149    0.75  0.000039  (-0.000211  0.004043 -0.004760)
 41:   1224.55   0.001706    8.62  0.000435  ( 0.018163  0.010107 -0.001683)
 42:   1231.71   0.004578   23.14  0.001160  ( 0.033152  0.007581  0.001839)
 43:   1236.17   0.000372    1.88  0.000094  ( 0.009351  0.001508 -0.002024)
 44:   1331.48   0.024236  122.48  0.005680  ( 0.074070  0.013399 -0.003800)
 45:   1362.76   0.032589  164.69  0.007463  ( 0.082124  0.026715 -0.002154)
 46:   1379.38   0.024116  121.87  0.005456  ( 0.072665  0.011540 -0.006504)
 47:   1399.16   0.009779   49.42  0.002181  ( 0.039169  0.025279 -0.002814)
 48:   1409.43   0.002009   10.15  0.000445  (-0.019935 -0.006795  0.001101)
 49:   1443.44   0.002686   13.57  0.000581  (-0.014692  0.014486  0.012452)
 50:   1445.31   0.004660   23.55  0.001006  (-0.024504 -0.019860  0.003374)
 51:   1448.12   0.004828   24.40  0.001040  (-0.030210 -0.010042  0.005180)
 52:   1451.80   0.005763   29.13  0.001239  (-0.030731 -0.016622 -0.004260)
 53:   1467.55   0.003232   16.33  0.000687  (-0.025381  0.000437  0.006544)
 54:   1509.55   0.002672   13.51  0.000552  (-0.008821  0.019599 -0.009514)
 55:   1510.98   0.001494    7.55  0.000309  ( 0.003861  0.003587  0.016759)
 56:   1512.99   0.005441   27.49  0.001122  ( 0.027480 -0.017565 -0.007646)
 57:   1515.49   0.002390   12.08  0.000492  ( 0.004465  0.000592  0.021722)
 58:   1519.10   0.000875    4.42  0.000180  (-0.012429 -0.005033  0.000183)
 59:   1523.23   0.000274    1.38  0.000056  ( 0.006120  0.002408  0.003589)
 60:   1525.58   0.004373   22.10  0.000895  (-0.025213  0.007302  0.014338)
 61:   1534.57   0.002047   10.35  0.000416  ( 0.012673  0.015330 -0.004557)
 62:   1542.50   0.003755   18.98  0.000760  ( 0.003677 -0.009790  0.025503)
 63:   1761.03   0.006518   32.94  0.001155  ( 0.033784  0.002077 -0.003061)
 64:   1842.45   0.092007  464.97  0.015584  (-0.052803  0.113108  0.001490)
 65:   3093.85   0.006098   30.82  0.000615  (-0.017738  0.012505  0.012004)
 66:   3096.76   0.004791   24.21  0.000483  ( 0.015661  0.013581  0.007285)
 67:   3101.62   0.003259   16.47  0.000328  (-0.017699  0.003046  0.002316)
 68:   3121.07   0.003895   19.68  0.000389  ( 0.007048 -0.018425  0.000500)
 69:   3121.98   0.000907    4.58  0.000091  (-0.005460  0.000466  0.007787)
 70:   3130.96   0.006654   33.63  0.000663  (-0.017441 -0.009276  0.016522)
 71:   3180.49   0.000917    4.64  0.000090  (-0.002959  0.005399  0.007218)
 72:   3181.93   0.000979    4.95  0.000096  (-0.001458 -0.001010 -0.009635)
 73:   3184.02   0.006240   31.54  0.000612  (-0.002239 -0.017853  0.016967)
 74:   3195.82   0.002785   14.08  0.000272  ( 0.003348  0.002446  0.015962)
 75:   3199.72   0.003524   17.81  0.000344  (-0.018413  0.000556 -0.002089)
 76:   3200.99   0.001998   10.10  0.000195  ( 0.001812  0.013605  0.002526)
 77:   3214.78   0.001402    7.08  0.000136  (-0.009832  0.005015  0.003776)
 78:   3217.62   0.000652    3.29  0.000063  ( 0.006447  0.001140  0.004512)
 79:   3219.87   0.001963    9.92  0.000190  (-0.001546 -0.013501  0.002353)
 80:   3264.11   0.000612    3.09  0.000059  ( 0.006558  0.003873 -0.000717)

--------------------------
THERMOCHEMISTRY AT 298.15K
--------------------------

Temperature         ...   298.15 K
Pressure            ...     1.00 atm
Total Mass          ...   156.23 AMU
Quasi RRHO          ...     True
Cut-Off Frequency   ...     1.00 cm^-1

Throughout the following assumptions are being made:
  (1) The electronic state is orbitally nondegenerate
  (2) There are no thermally accessible electronically excited states
  (3) Hindered rotations indicated by low frequency modes are not
      treated as such but are treated as vibrations and this may
      cause some error
  (4) All equations used are the standard statistical mechanics
      equations for an ideal gas
  (5) All vibrations are strictly harmonic

freq.      24.20  E(vib)   ...       0.56
freq.      45.65  E(vib)   ...       0.53
freq.      50.34  E(vib)   ...       0.52
freq.      78.84  E(vib)   ...       0.49
freq.     105.85  E(vib)   ...       0.45
freq.     162.51  E(vib)   ...       0.39
freq.     174.38  E(vib)   ...       0.38
freq.     222.03  E(vib)   ...       0.33
freq.     229.26  E(vib)   ...       0.32
freq.     241.63  E(vib)   ...       0.31
freq.     287.58  E(vib)   ...       0.27
freq.     311.19  E(vib)   ...       0.26
freq.     326.73  E(vib)   ...       0.24
freq.     380.21  E(vib)   ...       0.21
freq.     393.66  E(vib)   ...       0.20
freq.     439.10  E(vib)   ...       0.17
freq.     491.46  E(vib)   ...       0.14
freq.     519.72  E(vib)   ...       0.13
freq.     538.51  E(vib)   ...       0.12
freq.     756.39  E(vib)   ...       0.06
freq.     772.98  E(vib)   ...       0.05
freq.     842.77  E(vib)   ...       0.04
freq.     860.88  E(vib)   ...       0.04
freq.     902.09  E(vib)   ...       0.03
freq.     905.31  E(vib)   ...       0.03
freq.     956.44  E(vib)   ...       0.03
freq.     970.65  E(vib)   ...       0.03
freq.     987.24  E(vib)   ...       0.02
freq.    1005.35  E(vib)   ...       0.02
freq.    1007.99  E(vib)   ...       0.02
freq.    1022.88  E(vib)   ...       0.02
freq.    1095.94  E(vib)   ...       0.02
freq.    1125.73  E(vib)   ...       0.01
freq.    1126.43  E(vib)   ...       0.01
freq.    1189.94  E(vib)   ...       0.01
freq.    1224.55  E(vib)   ...       0.01
freq.    1231.71  E(vib)   ...       0.01
freq.    1236.17  E(vib)   ...       0.01
freq.    1331.48  E(vib)   ...       0.01
freq.    1362.76  E(vib)   ...       0.01
freq.    1379.38  E(vib)   ...       0.01
freq.    1399.16  E(vib)   ...       0.00
freq.    1409.43  E(vib)   ...       0.00
freq.    1443.44  E(vib)   ...       0.00
freq.    1445.31  E(vib)   ...       0.00
freq.    1448.12  E(vib)   ...       0.00
freq.    1451.80  E(vib)   ...       0.00
freq.    1467.55  E(vib)   ...       0.00
freq.    1509.55  E(vib)   ...       0.00
freq.    1510.98  E(vib)   ...       0.00
freq.    1512.99  E(vib)   ...       0.00
freq.    1515.49  E(vib)   ...       0.00
freq.    1519.10  E(vib)   ...       0.00
freq.    1523.23  E(vib)   ...       0.00
freq.    1525.58  E(vib)   ...       0.00
freq.    1534.57  E(vib)   ...       0.00
freq.    1542.50  E(vib)   ...       0.00
freq.    1761.03  E(vib)   ...       0.00
freq.    1842.45  E(vib)   ...       0.00
freq.    3093.85  E(vib)   ...       0.00
freq.    3096.76  E(vib)   ...       0.00
freq.    3101.62  E(vib)   ...       0.00
freq.    3121.07  E(vib)   ...       0.00
freq.    3121.98  E(vib)   ...       0.00
freq.    3130.96  E(vib)   ...       0.00
freq.    3180.49  E(vib)   ...       0.00
freq.    3181.93  E(vib)   ...       0.00
freq.    3184.02  E(vib)   ...       0.00
freq.    3195.82  E(vib)   ...       0.00
freq.    3199.72  E(vib)   ...       0.00
freq.    3200.99  E(vib)   ...       0.00
freq.    3214.78  E(vib)   ...       0.00
freq.    3217.62  E(vib)   ...       0.00
freq.    3219.87  E(vib)   ...       0.00
freq.    3264.11  E(vib)   ...       0.00

------------
INNER ENERGY
------------

The inner energy is: U= E(el) + E(ZPE) + E(vib) + E(rot) + E(trans)
    E(el)   - is the total energy from the electronic structure calculation
              = E(kin-el) + E(nuc-el) + E(el-el) + E(nuc-nuc)
    E(ZPE)  - the the zero temperature vibrational energy from the frequency calculation
    E(vib)  - the the finite temperature correction to E(ZPE) due to population
              of excited vibrational states
    E(rot)  - is the rotational thermal energy
    E(trans)- is the translational thermal energy

Summary of contributions to the inner energy U:
Electronic energy                ...    -93.05816385 Eh
Zero point energy                ...      0.24241017 Eh     152.11 kcal/mol
Thermal vibrational correction   ...      0.01050953 Eh       6.59 kcal/mol
Thermal rotational correction    ...      0.00141627 Eh       0.89 kcal/mol
Thermal translational correction ...      0.00141627 Eh       0.89 kcal/mol
-----------------------------------------------------------------------
Total thermal energy                    -92.80241160 Eh

Summary of corrections to the electronic energy:
(perhaps to be used in another calculation)
Total thermal correction                  0.01334208 Eh       8.37 kcal/mol
Non-thermal (ZPE) correction              0.24241017 Eh     152.11 kcal/mol
-----------------------------------------------------------------------
Total correction                          0.25575225 Eh     160.49 kcal/mol

--------
ENTHALPY
--------

The enthalpy is H = U + kB*T
                kB is Boltzmann's constant
Total thermal energy              ...    -92.80241160 Eh
Thermal Enthalpy correction       ...      0.00094421 Eh       0.59 kcal/mol
-----------------------------------------------------------------------
Total Enthalpy                    ...    -92.80146739 Eh

Note: Only C1 symmetry has been detected, increase convergence thresholds
      if your molecule has a higher symmetry. Symmetry factor of 1.0 is
      used for the rotational entropy correction.

Note: Rotational entropy computed according to Herzberg
Infrared and Raman Spectra, Chapter V,1, Van Nostrand Reinhold, 1945
Point Group:  C1, Symmetry Number:   1
Rotational constants in cm-1:     0.073599     0.018021     0.015841

Vibrational entropy computed according to the QRRHO of S. Grimme
Chem.Eur.J. 2012 18 9955 using a reference frequency of 100.0 cm-1

-------
ENTROPY
-------

The entropy contributions are T*S = T*(S(el)+S(vib)+S(rot)+S(trans))
     S(el)   - electronic entropy
     S(vib)  - vibrational entropy
     S(rot)  - rotational entropy
     S(trans)- translational entropy

                             ****ORCA TERMINATED NORMALLY****
TOTAL RUN TIME: 0 days 0 hours 12 minutes 10 seconds 95 msec
