                         Program Version 6.0.1  -  RELEASE   -
|  1> ! wB97X-3c OPT FREQ TightSCF
|  2> %pal
|  3>   nprocs 40
|  4> end
|  5> * xyz 0 1
|  6> C     -3.165742    -2.840608     0.032479
|  7> C     -2.389255    -1.564851    -0.151105
|  8> C     -1.051592    -1.625929    -0.304533
|  9> C     -0.160019    -0.413115    -0.519111
| 10> C     -0.946592     0.948117    -0.569870
| 11> C     -2.260921     0.905803     0.228574
| 12> C     -3.129685    -0.254497    -0.245611
| 13> C     -0.107325     2.127088    -0.105876
| 14> C      0.729873     1.981687     0.932993
| 15> C      0.888191     0.637116     1.574279
| 16> C      1.059208    -0.447899     0.486240
| 17> C      2.428979    -0.361941    -0.279103
| 18> C      2.727399    -1.682415    -1.017108
| 19> C      3.627151    -0.038706     0.632769
| 20> C     -0.220446     3.463918    -0.786862
| 21> H     -2.849014    -3.339696     0.972559
| 22> H     -2.978955    -3.522862    -0.823852
| 23> H     -4.256883    -2.642630     0.088250
| 24> H     -0.568820    -2.600541    -0.293457
| 25> H      0.230731    -0.542724    -1.549818
| 26> H     -1.228532     1.126317    -1.633041
| 27> H     -2.819824     1.855710     0.078533
| 28> H     -2.068048     0.796548     1.316061
| 29> H     -3.434689    -0.088165    -1.301481
| 30> H     -4.049391    -0.288164     0.377464
| 31> H      1.345060     2.811250     1.270654
| 32> H      1.727669     0.647078     2.298304
| 33> H     -0.015235     0.410588     2.176926
| 34> H      1.066975    -1.415525     1.038674
| 35> H      2.366901     0.450013    -1.037725
| 36> H      1.921212    -1.952567    -1.727331
| 37> H      2.846257    -2.515066    -0.290800
| 38> H      3.665111    -1.590071    -1.605862
| 39> H      4.581583    -0.127895     0.070754
| 40> H      3.659595    -0.734580     1.498434
| 41> H      3.572152     1.008687     0.995955
| 42> H     -0.524282     4.236681    -0.049399
| 43> H      0.759733     3.744220    -1.227044
| 44> H     -0.978530     3.439624    -1.597338
| 45> *
| 46>
| 47>                          ****END OF INPUT****
 Total Charge           Charge          ....    0
 Multiplicity           Mult            ....    1
 Number of Electrons    NEL             ....   84
Dispersion correction           -0.051817429
FINAL SINGLE POINT ENERGY       -99.920345226250
Dispersion correction             ... done (  0.1 sec)
Dispersion correction           -0.052787202
FINAL SINGLE POINT ENERGY       -99.931999197636
Dispersion correction             ... done (  0.1 sec)
Dispersion correction           -0.052901869
FINAL SINGLE POINT ENERGY       -99.933170229029
Dispersion correction             ... done (  0.1 sec)
FINAL SINGLE POINT ENERGY       -99.933644407376
FINAL SINGLE POINT ENERGY       -99.933985680787
FINAL SINGLE POINT ENERGY       -99.934712931980
FINAL SINGLE POINT ENERGY       -99.935410926626
FINAL SINGLE POINT ENERGY       -99.936369617300
FINAL SINGLE POINT ENERGY       -99.938171081925
FINAL SINGLE POINT ENERGY       -99.939679893945
FINAL SINGLE POINT ENERGY       -99.940473236605
FINAL SINGLE POINT ENERGY       -99.940703105091
FINAL SINGLE POINT ENERGY       -99.940766549803
FINAL SINGLE POINT ENERGY       -99.940790680148
Dispersion correction             ... done (  0.1 sec)
Dispersion correction           -0.052886663
FINAL SINGLE POINT ENERGY       -99.940796813015
Dispersion correction             ... done (  0.1 sec)
Dispersion correction           -0.052887354
FINAL SINGLE POINT ENERGY       -99.940798661042
Dispersion correction             ... done (  0.1 sec)
                    ***********************HURRAY********************

CARTESIAN COORDINATES (ANGSTROEM)
---------------------------------
  C     -3.107005   -2.821692   -0.173050
  C     -2.304373   -1.561814   -0.221306
  C     -0.987019   -1.564895   -0.381050
  C     -0.104806   -0.358328   -0.503002
  C     -0.920528    0.952628   -0.524738
  C     -2.179071    0.867836    0.336395
  C     -3.068935   -0.279247   -0.091212
  C     -0.105681    2.153343   -0.127024
  C      0.741176    2.037792    0.886804
  C      0.922781    0.710865    1.552754
  C      1.068205   -0.399054    0.512694
  C      2.420332   -0.370772   -0.221572
  C      2.636321   -1.670606   -0.985089
  C      3.608167   -0.131681    0.697172
  C     -0.350850    3.428132   -0.862667
  H     -3.624311   -2.916791    0.783062
  H     -2.484011   -3.702495   -0.314634
  H     -3.874575   -2.819290   -0.949161
  H     -0.477980   -2.520985   -0.461358
  H      0.349544   -0.421496   -1.493962
  H     -1.260302    1.092662   -1.555589
  H     -2.723625    1.811346    0.276756
  H     -1.900091    0.735896    1.382026
  H     -3.550291   -0.050847   -1.047979
  H     -3.882412   -0.411660    0.625856
  H      1.311477    2.893804    1.228972
  H      1.776060    0.720900    2.226311
  H      0.059204    0.485140    2.182416
  H      1.021335   -1.351444    1.049924
  H      2.386430    0.451498   -0.942810
  H      1.814450   -1.904708   -1.660045
  H      2.739793   -2.506505   -0.290018
  H      3.546606   -1.624923   -1.582859
  H      4.542019   -0.255270    0.148610
  H      3.616839   -0.845838    1.523479
  H      3.610825    0.871803    1.118003
  H      0.234103    4.247799   -0.449902
  H     -0.094761    3.320883   -1.918150
  H     -1.405043    3.708015   -0.820482

 Multiplicity           Mult            ....    1
 Number of Electrons    NEL             ....   84
 Basis Dimension        Dim             ....  315

ORBITAL ENERGIES
----------------

  NO   OCC          E(Eh)            E(eV)
   0   2.0000      -1.004386       -27.3307
   1   2.0000      -0.959738       -26.1158
   2   2.0000      -0.942702       -25.6522
   3   2.0000      -0.892418       -24.2839
   4   2.0000      -0.889214       -24.1968
   5   2.0000      -0.870179       -23.6788
   6   2.0000      -0.814638       -22.1674
   7   2.0000      -0.813169       -22.1275
   8   2.0000      -0.803180       -21.8556
   9   2.0000      -0.756964       -20.5980
  10   2.0000      -0.728208       -19.8156
  11   2.0000      -0.716114       -19.4865
  12   2.0000      -0.680496       -18.5172
  13   2.0000      -0.634437       -17.2639
  14   2.0000      -0.624087       -16.9823
  15   2.0000      -0.592146       -16.1131
  16   2.0000      -0.579243       -15.7620
  17   2.0000      -0.566716       -15.4211
  18   2.0000      -0.561072       -15.2676
  19   2.0000      -0.552253       -15.0276
  20   2.0000      -0.547185       -14.8897
  21   2.0000      -0.531019       -14.4498
  22   2.0000      -0.530334       -14.4311
  23   2.0000      -0.522451       -14.2166
  24   2.0000      -0.515084       -14.0162
  25   2.0000      -0.498813       -13.5734
  26   2.0000      -0.493312       -13.4237
  27   2.0000      -0.489634       -13.3236
  28   2.0000      -0.486152       -13.2289
  29   2.0000      -0.477935       -13.0053
  30   2.0000      -0.466785       -12.7019
  31   2.0000      -0.463879       -12.6228
  32   2.0000      -0.462067       -12.5735
  33   2.0000      -0.443025       -12.0553
  34   2.0000      -0.437745       -11.9117
  35   2.0000      -0.431256       -11.7351
  36   2.0000      -0.419600       -11.4179
  37   2.0000      -0.404937       -11.0189
  38   2.0000      -0.394854       -10.7445
  39   2.0000      -0.386579       -10.5194
  40   2.0000      -0.327556        -8.9133
  41   2.0000      -0.325807        -8.8657
  42   0.0000       0.084132         2.2894
  43   0.0000       0.089801         2.4436
  44   0.0000       0.094352         2.5674
  45   0.0000       0.100539         2.7358
  46   0.0000       0.103809         2.8248

MULLIKEN ATOMIC CHARGES
-----------------------
   0 C :   -0.051938
   1 C :   -0.065942
   2 C :    0.032069
   3 C :   -0.094492
   4 C :   -0.089737
   5 C :   -0.000096
   6 C :   -0.050589
   7 C :   -0.065368
   8 C :   -0.004111
   9 C :   -0.031552
  10 C :   -0.053187
  11 C :   -0.076743
  12 C :   -0.036680
  13 C :   -0.038890
  14 C :   -0.038242
  15 H :    0.036675
  16 H :    0.027212
  17 H :    0.034807
  18 H :    0.000347
  19 H :    0.043835
  20 H :    0.025794
  21 H :    0.030126
  22 H :    0.025202
  23 H :    0.038321
  24 H :    0.031245
  25 H :    0.009860
  26 H :    0.027943
  27 H :    0.035914
  28 H :    0.027745
  29 H :    0.035867
  30 H :    0.018357
  31 H :    0.022665
  32 H :    0.027983
  33 H :    0.026043
  34 H :    0.025079
  35 H :    0.023154
  36 H :    0.026794
  37 H :    0.035971
  38 H :    0.028560
Sum of atomic charges:    0.0000000

LOEWDIN ATOMIC CHARGES
----------------------
   0 C :   -0.109199
   1 C :   -0.050198
   2 C :   -0.049011
   3 C :   -0.049802
   4 C :   -0.052029
   5 C :   -0.067079
   6 C :   -0.081107
   7 C :   -0.040945
   8 C :   -0.046456
   9 C :   -0.082241
  10 C :   -0.042604
  11 C :   -0.075620
  12 C :   -0.108772
  13 C :   -0.110436
  14 C :   -0.109347
  15 H :    0.047652
  16 H :    0.049294
  17 H :    0.048765
  18 H :    0.037419
  19 H :    0.047687
  20 H :    0.050215
  21 H :    0.045520
  22 H :    0.044348
  23 H :    0.048506
  24 H :    0.050376
  25 H :    0.032343
  26 H :    0.044176
  27 H :    0.044294
  28 H :    0.043731
  29 H :    0.042881
  30 H :    0.038917
  31 H :    0.041938
  32 H :    0.043323
  33 H :    0.044734
  34 H :    0.042406
  35 H :    0.040718
  36 H :    0.050158
  37 H :    0.048345
  38 H :    0.047099

  Mayer bond orders larger than 0.100000
B(  0-C ,  1-C ) :   1.0342 B(  0-C , 15-H ) :   0.9794 B(  0-C , 16-H ) :   0.9913
B(  0-C , 17-H ) :   0.9781 B(  1-C ,  2-C ) :   1.8879 B(  1-C ,  6-C ) :   1.0115
B(  2-C ,  3-C ) :   1.0488 B(  2-C , 18-H ) :   0.9890 B(  3-C ,  4-C ) :   0.9944
B(  3-C , 10-C ) :   0.9669 B(  3-C , 19-H ) :   0.9851 B(  4-C ,  5-C ) :   0.9591
B(  4-C ,  7-C ) :   1.0334 B(  4-C , 20-H ) :   0.9958 B(  5-C ,  6-C ) :   0.9976
B(  5-C , 21-H ) :   0.9981 B(  5-C , 22-H ) :   0.9912 B(  6-C , 23-H ) :   0.9767
B(  6-C , 24-H ) :   0.9892 B(  7-C ,  8-C ) :   1.9054 B(  7-C , 14-C ) :   1.0345
B(  8-C ,  9-C ) :   1.0159 B(  8-C , 25-H ) :   0.9853 B(  9-C , 10-C ) :   0.9972
B(  9-C , 26-H ) :   0.9948 B(  9-C , 27-H ) :   0.9852 B( 10-C , 11-C ) :   0.9666
B( 10-C , 28-H ) :   0.9944 B( 11-C , 12-C ) :   1.0003 B( 11-C , 13-C ) :   1.0065
B( 11-C , 29-H ) :   0.9898 B( 12-C , 30-H ) :   0.9955 B( 12-C , 31-H ) :   0.9905
B( 12-C , 32-H ) :   0.9972 B( 13-C , 33-H ) :   0.9946 B( 13-C , 34-H ) :   0.9886
B( 13-C , 35-H ) :   0.9956 B( 14-C , 36-H ) :   0.9898 B( 14-C , 37-H ) :   0.9781
B( 14-C , 38-H ) :   0.9780

Dispersion correction           -0.052887554
FINAL SINGLE POINT ENERGY       -99.940799082229

DIPOLE MOMENT
-------------

Method             : SCF
Type of density    : Electron Density
Multiplicity       :   1
Irrep              :   0
Energy             :   -99.8879115280383303 Eh
Relativity type    :
Basis              : AO
                                X                 Y                 Z
Electronic contribution:     -5.149842231       2.907834509       0.777203293
Nuclear contribution   :      4.981853628      -2.855984521      -0.856300142
                        -----------------------------------------
Total Dipole Moment    :     -0.167988603       0.051849988      -0.079096849
                        -----------------------------------------
Magnitude (a.u.)       :      0.192782010
Magnitude (Debye)      :      0.490012928

VIBRATIONAL FREQUENCIES
-----------------------

Scaling factor for frequencies =  1.000000000  (already applied!)

     0:       0.00 cm**-1
     1:       0.00 cm**-1
     2:       0.00 cm**-1
     3:       0.00 cm**-1
     4:       0.00 cm**-1
     5:       0.00 cm**-1
     6:      29.51 cm**-1
     7:      77.18 cm**-1
     8:      92.77 cm**-1
     9:     115.41 cm**-1
    10:     149.79 cm**-1
    11:     187.05 cm**-1
    12:     191.15 cm**-1
    13:     209.66 cm**-1
    14:     236.67 cm**-1
    15:     243.05 cm**-1
    16:     262.21 cm**-1
    17:     271.37 cm**-1
    18:     294.36 cm**-1
    19:     313.51 cm**-1
    20:     347.83 cm**-1
    21:     370.51 cm**-1
    22:     382.49 cm**-1
    23:     415.49 cm**-1
    24:     435.21 cm**-1
    25:     451.83 cm**-1
    26:     488.28 cm**-1
    27:     528.53 cm**-1
    28:     556.24 cm**-1
    29:     574.58 cm**-1
    30:     617.31 cm**-1
    31:     703.37 cm**-1
    32:     754.97 cm**-1
    33:     783.84 cm**-1
    34:     824.47 cm**-1
    35:     842.46 cm**-1
    36:     866.39 cm**-1
    37:     878.76 cm**-1
    38:     925.73 cm**-1
    39:     928.95 cm**-1
    40:     948.58 cm**-1
    41:     959.81 cm**-1
    42:     991.74 cm**-1
    43:     999.65 cm**-1
    44:    1003.01 cm**-1
    45:    1023.51 cm**-1
    46:    1044.37 cm**-1
    47:    1058.56 cm**-1
    48:    1061.80 cm**-1
    49:    1088.70 cm**-1
    50:    1090.17 cm**-1
    51:    1100.64 cm**-1
    52:    1115.51 cm**-1
    53:    1146.44 cm**-1
    54:    1165.97 cm**-1
    55:    1176.30 cm**-1
    56:    1203.00 cm**-1
    57:    1208.11 cm**-1
    58:    1214.60 cm**-1
    59:    1229.11 cm**-1
    60:    1241.66 cm**-1
    61:    1270.77 cm**-1
    62:    1289.72 cm**-1
    63:    1308.89 cm**-1
    64:    1323.07 cm**-1
    65:    1352.14 cm**-1
    66:    1364.24 cm**-1
    67:    1372.57 cm**-1
    68:    1377.06 cm**-1
    69:    1391.86 cm**-1
    70:    1401.21 cm**-1
    71:    1419.22 cm**-1
    72:    1422.18 cm**-1
    73:    1435.36 cm**-1
    74:    1438.61 cm**-1
    75:    1442.37 cm**-1
    76:    1443.87 cm**-1
    77:    1452.74 cm**-1
    78:    1456.32 cm**-1
    79:    1458.39 cm**-1
    80:    1504.64 cm**-1
    81:    1508.82 cm**-1
    82:    1511.48 cm**-1
    83:    1514.87 cm**-1
    84:    1517.71 cm**-1
    85:    1520.23 cm**-1
    86:    1522.56 cm**-1
    87:    1523.78 cm**-1
    88:    1534.92 cm**-1
    89:    1536.13 cm**-1
    90:    1555.10 cm**-1
    91:    1799.33 cm**-1
    92:    1806.08 cm**-1
    93:    3074.09 cm**-1
    94:    3075.76 cm**-1
    95:    3076.68 cm**-1
    96:    3090.31 cm**-1
    97:    3090.90 cm**-1
    98:    3091.92 cm**-1
    99:    3092.72 cm**-1
   100:    3094.50 cm**-1
   101:    3102.66 cm**-1
   102:    3105.47 cm**-1
   103:    3113.49 cm**-1
   104:    3129.80 cm**-1
   105:    3166.88 cm**-1
   106:    3168.53 cm**-1
   107:    3169.06 cm**-1
   108:    3173.46 cm**-1
   109:    3177.87 cm**-1
   110:    3178.96 cm**-1
   111:    3191.87 cm**-1
   112:    3196.99 cm**-1
   113:    3197.46 cm**-1
   114:    3201.18 cm**-1
   115:    3203.71 cm**-1
   116:    3225.21 cm**-1

IR SPECTRUM
-----------

 Mode   freq       eps      Int      T**2         TX        TY        TZ
       cm**-1   L/(mol*cm) km/mol    a.u.
----------------------------------------------------------------------------
  6:     29.51   0.000016    0.08  0.000166  (-0.002048  0.002759 -0.012402)
  7:     77.18   0.000004    0.02  0.000017  ( 0.003273  0.000479  0.002520)
  8:     92.77   0.000015    0.08  0.000051  (-0.005054 -0.000314  0.005011)
  9:    115.41   0.000105    0.53  0.000284  ( 0.001024  0.001274  0.016780)
 10:    149.79   0.000122    0.62  0.000255  ( 0.013247 -0.004350 -0.007792)
 11:    187.05   0.000012    0.06  0.000020  (-0.002191  0.001407  0.003669)
 12:    191.15   0.000062    0.31  0.000101  (-0.001908 -0.001374  0.009795)
 13:    209.66   0.000022    0.11  0.000032  ( 0.004446 -0.002552  0.002477)
 14:    236.67   0.000001    0.01  0.000002  ( 0.001062  0.000224  0.000755)
 15:    243.05   0.000133    0.67  0.000170  ( 0.005479 -0.004720 -0.010859)
 16:    262.21   0.000071    0.36  0.000085  ( 0.004741 -0.002044 -0.007634)
 17:    271.37   0.000119    0.60  0.000137  ( 0.006080 -0.005289 -0.008463)
 18:    294.36   0.000034    0.17  0.000036  ( 0.001921 -0.004363  0.003606)
 19:    313.51   0.000152    0.77  0.000151  ( 0.003141 -0.002963  0.011501)
 20:    347.83   0.000284    1.44  0.000255  ( 0.009967  0.002278  0.012261)
 21:    370.51   0.000034    0.17  0.000029  ( 0.004600  0.001535 -0.002315)
 22:    382.49   0.000069    0.35  0.000056  (-0.003842  0.005979 -0.002358)
 23:    415.49   0.000053    0.27  0.000040  ( 0.004652 -0.001879  0.003839)
 24:    435.21   0.000099    0.50  0.000071  (-0.001076 -0.000312 -0.008367)
 25:    451.83   0.000461    2.33  0.000318  (-0.001631 -0.001735  0.017685)
 26:    488.28   0.000063    0.32  0.000040  (-0.006003  0.001729 -0.001070)
 27:    528.53   0.000122    0.62  0.000072  ( 0.005258  0.005716  0.003444)
 28:    556.24   0.000680    3.44  0.000382  (-0.012278 -0.000179  0.015193)
 29:    574.58   0.000051    0.26  0.000028  (-0.000014  0.001961  0.004876)
 30:    617.31   0.000427    2.16  0.000216  ( 0.011091 -0.006584 -0.007027)
 31:    703.37   0.000022    0.11  0.000010  (-0.001218  0.002030  0.002008)
 32:    754.97   0.000115    0.58  0.000048  (-0.006090  0.000764  0.003143)
 33:    783.84   0.000399    2.02  0.000159  (-0.005414  0.001332  0.011304)
 34:    824.47   0.001162    5.87  0.000440  ( 0.020453 -0.004387 -0.001503)
 35:    842.46   0.001934    9.78  0.000717  ( 0.012501 -0.005819 -0.022944)
 36:    866.39   0.001147    5.80  0.000413  (-0.011480  0.005024  0.016004)
 37:    878.76   0.000768    3.88  0.000273  ( 0.009821 -0.000498 -0.013268)
 38:    925.73   0.000933    4.71  0.000314  ( 0.004119  0.006978  0.015771)
 39:    928.95   0.000909    4.59  0.000305  ( 0.014318 -0.006013  0.008008)
 40:    948.58   0.000027    0.14  0.000009  ( 0.000730  0.000880  0.002748)
 41:    959.81   0.000497    2.51  0.000162  (-0.002312 -0.010582 -0.006651)
 42:    991.74   0.000072    0.36  0.000023  (-0.002214  0.004212  0.000056)
 43:    999.65   0.000824    4.17  0.000257  (-0.012705  0.008782 -0.004333)
 44:   1003.01   0.000019    0.09  0.000006  (-0.002196  0.000957  0.000275)
 45:   1023.51   0.000728    3.68  0.000222  ( 0.006920 -0.009458 -0.009195)
 46:   1044.37   0.000332    1.68  0.000099  (-0.004864 -0.008172  0.002958)
 47:   1058.56   0.000042    0.21  0.000013  ( 0.001406  0.002985 -0.001275)
 48:   1061.80   0.001404    7.09  0.000413  (-0.003209  0.001060  0.020030)
 49:   1088.70   0.001969    9.95  0.000564  (-0.022637 -0.006613  0.002861)
 50:   1090.17   0.000092    0.46  0.000026  ( 0.005112  0.000350  0.000285)
 51:   1100.64   0.000307    1.55  0.000087  ( 0.008536  0.000615  0.003729)
 52:   1115.51   0.001129    5.71  0.000316  (-0.017765 -0.000574 -0.000197)
 53:   1146.44   0.000128    0.65  0.000035  (-0.003502 -0.003827  0.002817)
 54:   1165.97   0.000267    1.35  0.000071  (-0.008175 -0.000340 -0.002129)
 55:   1176.30   0.000053    0.27  0.000014  (-0.003733  0.000146 -0.000277)
 56:   1203.00   0.000252    1.27  0.000065  ( 0.007643  0.001997 -0.001706)
 57:   1208.11   0.000527    2.66  0.000136  (-0.001174  0.009502  0.006666)
 58:   1214.60   0.001466    7.41  0.000377  ( 0.017518 -0.007517  0.003650)
 59:   1229.11   0.000416    2.10  0.000106  ( 0.006441  0.003479 -0.007215)
 60:   1241.66   0.000358    1.81  0.000090  ( 0.009445 -0.000939  0.000011)
 61:   1270.77   0.000168    0.85  0.000041  (-0.005676 -0.000390 -0.002988)
 62:   1289.72   0.000908    4.59  0.000220  (-0.014684  0.001265 -0.001551)
 63:   1308.89   0.000620    3.14  0.000148  (-0.011632  0.003550  0.000003)
 64:   1323.07   0.000148    0.75  0.000035  ( 0.000559  0.005890  0.000150)
 65:   1352.14   0.000044    0.22  0.000010  ( 0.002722 -0.001674  0.000147)
 66:   1364.24   0.000161    0.81  0.000037  ( 0.000101 -0.005944  0.001227)
 67:   1372.57   0.000387    1.95  0.000088  (-0.008721 -0.003090 -0.001523)
 68:   1377.06   0.000140    0.71  0.000032  (-0.004167  0.002114 -0.003150)
 69:   1391.86   0.000069    0.35  0.000015  ( 0.002076  0.001143 -0.003142)
 70:   1401.21   0.000807    4.08  0.000180  ( 0.011022 -0.007455 -0.001602)
 71:   1419.22   0.000026    0.13  0.000006  ( 0.001567 -0.001747 -0.000481)
 72:   1422.18   0.000165    0.83  0.000036  ( 0.002693  0.000806 -0.005316)
 73:   1435.36   0.000647    3.27  0.000141  (-0.000627 -0.009923 -0.006463)
 74:   1438.61   0.000041    0.21  0.000009  ( 0.000038  0.000723  0.002895)
 75:   1442.37   0.000602    3.04  0.000130  (-0.007369  0.001135 -0.008639)
 76:   1443.87   0.002150   10.86  0.000465  (-0.013076 -0.004927 -0.016413)
 77:   1452.74   0.001701    8.60  0.000365  ( 0.018717 -0.003138 -0.002299)
 78:   1456.32   0.001800    9.10  0.000386  (-0.002999 -0.018578  0.005624)
 79:   1458.39   0.003076   15.55  0.000658  (-0.001647  0.025358 -0.003536)
 80:   1504.64   0.001156    5.84  0.000240  ( 0.011620  0.000735  0.010210)
 81:   1508.82   0.002309   11.67  0.000478  ( 0.008378 -0.005635 -0.019381)
 82:   1511.48   0.000745    3.77  0.000154  (-0.004454  0.003708 -0.010966)
 83:   1514.87   0.000272    1.37  0.000056  ( 0.003884  0.005341  0.003519)
 84:   1517.71   0.000445    2.25  0.000092  ( 0.006921 -0.006496 -0.001189)
 85:   1520.23   0.001880    9.50  0.000386  (-0.011443 -0.008431 -0.013560)
 86:   1522.56   0.001165    5.89  0.000239  ( 0.008437 -0.012705 -0.002501)
 87:   1523.78   0.001877    9.49  0.000384  ( 0.017019 -0.006653 -0.007106)
 88:   1534.92   0.003543   17.91  0.000720  (-0.004472 -0.005898  0.025800)
 89:   1536.13   0.003421   17.29  0.000695  ( 0.019048 -0.006182 -0.017143)
 90:   1555.10   0.001362    6.88  0.000273  ( 0.007541  0.014442  0.002821)
 91:   1799.33   0.000798    4.03  0.000138  (-0.006328  0.000995 -0.009863)
 92:   1806.08   0.000605    3.06  0.000104  ( 0.009502 -0.001290  0.003539)
 93:   3074.09   0.001978   10.00  0.000201  (-0.005618  0.005020 -0.012001)
 94:   3075.76   0.001385    7.00  0.000141  ( 0.000336  0.011806 -0.001029)
 95:   3076.68   0.009379   47.40  0.000951  (-0.028459  0.000998 -0.011848)
 96:   3090.31   0.004642   23.46  0.000469  (-0.011261 -0.008382 -0.016484)
 97:   3090.90   0.007681   38.81  0.000775  (-0.001186 -0.026710  0.007788)
 98:   3091.92   0.003960   20.01  0.000400  ( 0.009906 -0.013406  0.011039)
 99:   3092.72   0.010046   50.77  0.001014  (-0.027454 -0.015969 -0.002224)
100:   3094.50   0.007676   38.79  0.000774  (-0.018404  0.020756 -0.002140)
101:   3102.66   0.007218   36.48  0.000726  ( 0.006643  0.001633 -0.026061)
102:   3105.47   0.006138   31.02  0.000617  ( 0.002423 -0.018656  0.016214)
103:   3113.49   0.005729   28.95  0.000574  (-0.010348  0.012537  0.017604)
104:   3129.80   0.006008   30.36  0.000599  (-0.018156  0.002791  0.016174)
105:   3166.88   0.002430   12.28  0.000239  (-0.008834  0.000395  0.012697)
106:   3168.53   0.001881    9.50  0.000185  (-0.000466  0.000297 -0.013598)
107:   3169.06   0.006302   31.85  0.000621  (-0.011936  0.013654 -0.017077)
108:   3173.46   0.000458    2.31  0.000045  (-0.006249 -0.002442 -0.000095)
109:   3177.87   0.008932   45.14  0.000877  ( 0.011865  0.010980 -0.024814)
110:   3178.96   0.003112   15.73  0.000306  (-0.016221  0.003741 -0.005332)
111:   3191.87   0.005242   26.49  0.000513  (-0.021563 -0.001026 -0.006819)
112:   3196.99   0.002825   14.28  0.000276  ( 0.003420 -0.014901 -0.006483)
113:   3197.46   0.003076   15.54  0.000300  (-0.000863  0.016924  0.003609)
114:   3201.18   0.002559   12.93  0.000249  (-0.009105 -0.010797 -0.007070)
115:   3203.71   0.004696   23.73  0.000457  ( 0.011845 -0.017434 -0.003634)
116:   3225.21   0.004607   23.28  0.000446  (-0.009007 -0.017844 -0.006799)

--------------------------
THERMOCHEMISTRY AT 298.15K
--------------------------

Temperature         ...   298.15 K
Pressure            ...     1.00 atm
Total Mass          ...   204.36 AMU
Quasi RRHO          ...     True
Cut-Off Frequency   ...     1.00 cm^-1

Throughout the following assumptions are being made:
  (1) The electronic state is orbitally nondegenerate
  (2) There are no thermally accessible electronically excited states
  (3) Hindered rotations indicated by low frequency modes are not
      treated as such but are treated as vibrations and this may
      cause some error
  (4) All equations used are the standard statistical mechanics
      equations for an ideal gas
  (5) All vibrations are strictly harmonic

freq.      29.51  E(vib)   ...       0.55
freq.      77.18  E(vib)   ...       0.49
freq.      92.77  E(vib)   ...       0.47
freq.     115.41  E(vib)   ...       0.44
freq.     149.79  E(vib)   ...       0.40
freq.     187.05  E(vib)   ...       0.36
freq.     191.15  E(vib)   ...       0.36
freq.     209.66  E(vib)   ...       0.34
freq.     236.67  E(vib)   ...       0.32
freq.     243.05  E(vib)   ...       0.31
freq.     262.21  E(vib)   ...       0.29
freq.     271.37  E(vib)   ...       0.29
freq.     294.36  E(vib)   ...       0.27
freq.     313.51  E(vib)   ...       0.25
freq.     347.83  E(vib)   ...       0.23
freq.     370.51  E(vib)   ...       0.21
freq.     382.49  E(vib)   ...       0.21
freq.     415.49  E(vib)   ...       0.18
freq.     435.21  E(vib)   ...       0.17
freq.     451.83  E(vib)   ...       0.16
freq.     488.28  E(vib)   ...       0.15
freq.     528.53  E(vib)   ...       0.13
freq.     556.24  E(vib)   ...       0.12
freq.     574.58  E(vib)   ...       0.11
freq.     617.31  E(vib)   ...       0.09
freq.     703.37  E(vib)   ...       0.07
freq.     754.97  E(vib)   ...       0.06
freq.     783.84  E(vib)   ...       0.05
freq.     824.47  E(vib)   ...       0.04
freq.     842.46  E(vib)   ...       0.04
freq.     866.39  E(vib)   ...       0.04
freq.     878.76  E(vib)   ...       0.04
freq.     925.73  E(vib)   ...       0.03
freq.     928.95  E(vib)   ...       0.03
freq.     948.58  E(vib)   ...       0.03
freq.     959.81  E(vib)   ...       0.03
freq.     991.74  E(vib)   ...       0.02
freq.     999.65  E(vib)   ...       0.02
freq.    1003.01  E(vib)   ...       0.02
freq.    1023.51  E(vib)   ...       0.02
freq.    1044.37  E(vib)   ...       0.02
freq.    1058.56  E(vib)   ...       0.02
freq.    1061.80  E(vib)   ...       0.02
freq.    1088.70  E(vib)   ...       0.02
freq.    1090.17  E(vib)   ...       0.02
freq.    1100.64  E(vib)   ...       0.02
freq.    1115.51  E(vib)   ...       0.01
freq.    1146.44  E(vib)   ...       0.01
freq.    1165.97  E(vib)   ...       0.01
freq.    1176.30  E(vib)   ...       0.01
freq.    1203.00  E(vib)   ...       0.01
freq.    1208.11  E(vib)   ...       0.01
freq.    1214.60  E(vib)   ...       0.01
freq.    1229.11  E(vib)   ...       0.01
freq.    1241.66  E(vib)   ...       0.01
freq.    1270.77  E(vib)   ...       0.01
freq.    1289.72  E(vib)   ...       0.01
freq.    1308.89  E(vib)   ...       0.01
freq.    1323.07  E(vib)   ...       0.01
freq.    1352.14  E(vib)   ...       0.01
freq.    1364.24  E(vib)   ...       0.01
freq.    1372.57  E(vib)   ...       0.01
freq.    1377.06  E(vib)   ...       0.01
freq.    1391.86  E(vib)   ...       0.00
freq.    1401.21  E(vib)   ...       0.00
freq.    1419.22  E(vib)   ...       0.00
freq.    1422.18  E(vib)   ...       0.00
freq.    1435.36  E(vib)   ...       0.00
freq.    1438.61  E(vib)   ...       0.00
freq.    1442.37  E(vib)   ...       0.00
freq.    1443.87  E(vib)   ...       0.00
freq.    1452.74  E(vib)   ...       0.00
freq.    1456.32  E(vib)   ...       0.00
freq.    1458.39  E(vib)   ...       0.00
freq.    1504.64  E(vib)   ...       0.00
freq.    1508.82  E(vib)   ...       0.00
freq.    1511.48  E(vib)   ...       0.00
freq.    1514.87  E(vib)   ...       0.00
freq.    1517.71  E(vib)   ...       0.00
freq.    1520.23  E(vib)   ...       0.00
freq.    1522.56  E(vib)   ...       0.00
freq.    1523.78  E(vib)   ...       0.00
freq.    1534.92  E(vib)   ...       0.00
freq.    1536.13  E(vib)   ...       0.00
freq.    1555.10  E(vib)   ...       0.00
freq.    1799.33  E(vib)   ...       0.00
freq.    1806.08  E(vib)   ...       0.00
freq.    3074.09  E(vib)   ...       0.00
freq.    3075.76  E(vib)   ...       0.00
freq.    3076.68  E(vib)   ...       0.00
freq.    3090.31  E(vib)   ...       0.00
freq.    3090.90  E(vib)   ...       0.00
freq.    3091.92  E(vib)   ...       0.00
freq.    3092.72  E(vib)   ...       0.00
freq.    3094.50  E(vib)   ...       0.00
freq.    3102.66  E(vib)   ...       0.00
freq.    3105.47  E(vib)   ...       0.00
freq.    3113.49  E(vib)   ...       0.00
freq.    3129.80  E(vib)   ...       0.00
freq.    3166.88  E(vib)   ...       0.00
freq.    3168.53  E(vib)   ...       0.00
freq.    3169.06  E(vib)   ...       0.00
freq.    3173.46  E(vib)   ...       0.00
freq.    3177.87  E(vib)   ...       0.00
freq.    3178.96  E(vib)   ...       0.00
freq.    3191.87  E(vib)   ...       0.00
freq.    3196.99  E(vib)   ...       0.00
freq.    3197.46  E(vib)   ...       0.00
freq.    3201.18  E(vib)   ...       0.00
freq.    3203.71  E(vib)   ...       0.00
freq.    3225.21  E(vib)   ...       0.00

------------
INNER ENERGY
------------

The inner energy is: U= E(el) + E(ZPE) + E(vib) + E(rot) + E(trans)
    E(el)   - is the total energy from the electronic structure calculation
              = E(kin-el) + E(nuc-el) + E(el-el) + E(nuc-nuc)
    E(ZPE)  - the the zero temperature vibrational energy from the frequency calculation
    E(vib)  - the the finite temperature correction to E(ZPE) due to population
              of excited vibrational states
    E(rot)  - is the rotational thermal energy
    E(trans)- is the translational thermal energy

Summary of contributions to the inner energy U:
Electronic energy                ...    -99.94079908 Eh
Zero point energy                ...      0.36584612 Eh     229.57 kcal/mol
Thermal vibrational correction   ...      0.01243251 Eh       7.80 kcal/mol
Thermal rotational correction    ...      0.00141627 Eh       0.89 kcal/mol
Thermal translational correction ...      0.00141627 Eh       0.89 kcal/mol
-----------------------------------------------------------------------
Total thermal energy                    -99.55968791 Eh

Summary of corrections to the electronic energy:
(perhaps to be used in another calculation)
Total thermal correction                  0.01526505 Eh       9.58 kcal/mol
Non-thermal (ZPE) correction              0.36584612 Eh     229.57 kcal/mol
-----------------------------------------------------------------------
Total correction                          0.38111117 Eh     239.15 kcal/mol

Rotational constants in cm-1:     0.025390     0.016645     0.011587

                             ****ORCA TERMINATED NORMALLY****
TOTAL RUN TIME: 0 days 0 hours 34 minutes 52 seconds 626 msec
