                         Program Version 6.0.1  -  RELEASE   -
|  1> ! wB97X-3c OPT FREQ TightSCF
|  2> %pal
|  3>   nprocs 40
|  4> end
|  5> * xyz 0 1
|  6> C     -2.542309    -0.310575    -0.513925
|  7> C     -1.311775     0.372903     0.101666
|  8> C     -1.786343     1.273395     1.223388
|  9> C     -1.569166     2.592330     1.216093
| 10> C     -0.260816    -0.645161     0.642782
| 11> C      0.211246    -1.683496    -0.402873
| 12> C      1.157632    -1.048378    -1.424840
| 13> C      2.412419    -0.498668    -0.730095
| 14> C      2.091681     0.247849     0.547666
| 15> C      0.933102     0.098555     1.213752
| 16> O      3.092801     0.349508    -1.616825
| 17> H     -3.342942     0.436045    -0.707532
| 18> H     -2.289778    -0.766644    -1.493221
| 19> H     -2.942055    -1.091764     0.167864
| 20> H     -0.841402     0.991689    -0.694407
| 21> H     -2.309682     0.832075     2.067281
| 22> H     -1.042786     3.071732     0.396608
| 23> H     -1.919157     3.203287     2.041681
| 24> H     -0.729755    -1.213943     1.476657
| 25> H      0.753327    -2.500692     0.123416
| 26> H     -0.640920    -2.167375    -0.919931
| 27> H      0.634922    -0.237808    -1.976029
| 28> H      1.459397    -1.815650    -2.170482
| 29> H      3.063145    -1.364141    -0.463873
| 30> H      2.883522     0.826583     1.014226
| 31> H      0.812201     0.616203     2.161028
| 32> H      4.023491     0.432142    -1.280076
| 33> *
| 34>
| 35>                          ****END OF INPUT****
 Total Charge           Charge          ....    0
 Multiplicity           Mult            ....    1
 Number of Electrons    NEL             ....   62
Dispersion correction           -0.032139043
FINAL SINGLE POINT ENERGY       -82.638298102264
Dispersion correction             ... done (  0.1 sec)
Dispersion correction           -0.032532491
FINAL SINGLE POINT ENERGY       -82.646293663469
Dispersion correction             ... done (  0.1 sec)
Dispersion correction           -0.032546213
FINAL SINGLE POINT ENERGY       -82.647163483865
Dispersion correction             ... done (  0.1 sec)
FINAL SINGLE POINT ENERGY       -82.647436697466
FINAL SINGLE POINT ENERGY       -82.647491757662
FINAL SINGLE POINT ENERGY       -82.647521679932
FINAL SINGLE POINT ENERGY       -82.647542491507
FINAL SINGLE POINT ENERGY       -82.647560435727
Dispersion correction             ... done (  0.1 sec)
Dispersion correction           -0.032448937
FINAL SINGLE POINT ENERGY       -82.647569661627
Dispersion correction             ... done (  0.1 sec)
Dispersion correction           -0.032450876
FINAL SINGLE POINT ENERGY       -82.647573191029
Dispersion correction             ... done (  0.1 sec)
                    ***********************HURRAY********************

CARTESIAN COORDINATES (ANGSTROEM)
---------------------------------
  C     -2.549596   -0.338013   -0.469111
  C     -1.325583    0.368832    0.100746
  C     -1.761558    1.278928    1.208815
  C     -1.629988    2.594615    1.216002
  C     -0.253347   -0.618334    0.608235
  C      0.211593   -1.632300   -0.433795
  C      1.183515   -1.017563   -1.423052
  C      2.441276   -0.575224   -0.712774
  C      2.118212    0.154992    0.557110
  C      0.931749    0.132387    1.145364
  O      3.180604    0.237250   -1.609176
  H     -3.323314    0.388932   -0.711361
  H     -2.318418   -0.887820   -1.378532
  H     -2.967408   -1.040922    0.253983
  H     -0.879153    0.986334   -0.682057
  H     -2.237896    0.791227    2.056875
  H     -1.158060    3.117468    0.392527
  H     -1.985374    3.193547    2.044020
  H     -0.706584   -1.169109    1.439917
  H      0.707943   -2.454392    0.088040
  H     -0.634763   -2.074941   -0.954254
  H      0.745101   -0.142987   -1.906032
  H      1.440052   -1.722000   -2.213681
  H      3.037575   -1.462448   -0.462782
  H      2.926054    0.723611    1.006562
  H      0.784622    0.703432    2.053445
  H      4.022746    0.464499   -1.215034

 Multiplicity           Mult            ....    1
 Number of Electrons    NEL             ....   62
 Basis Dimension        Dim             ....  223

ORBITAL ENERGIES
----------------

  NO   OCC          E(Eh)            E(eV)
   0   2.0000      -1.148310       -31.2471
   1   2.0000      -0.993983       -27.0477
   2   2.0000      -0.945024       -25.7154
   3   2.0000      -0.887637       -24.1538
   4   2.0000      -0.881002       -23.9733
   5   2.0000      -0.850787       -23.1511
   6   2.0000      -0.775618       -21.1056
   7   2.0000      -0.737537       -20.0694
   8   2.0000      -0.721432       -19.6312
   9   2.0000      -0.685466       -18.6525
  10   2.0000      -0.639206       -17.3937
  11   2.0000      -0.635893       -17.3035
  12   2.0000      -0.622024       -16.9261
  13   2.0000      -0.579810       -15.7774
  14   2.0000      -0.571556       -15.5528
  15   2.0000      -0.551702       -15.0126
  16   2.0000      -0.540461       -14.7067
  17   2.0000      -0.521837       -14.1999
  18   2.0000      -0.514606       -14.0031
  19   2.0000      -0.509854       -13.8738
  20   2.0000      -0.493563       -13.4305
  21   2.0000      -0.479868       -13.0579
  22   2.0000      -0.469339       -12.7714
  23   2.0000      -0.460847       -12.5403
  24   2.0000      -0.447620       -12.1804
  25   2.0000      -0.428487       -11.6597
  26   2.0000      -0.423301       -11.5186
  27   2.0000      -0.413121       -11.2416
  28   2.0000      -0.383400       -10.4328
  29   2.0000      -0.361226        -9.8295
  30   2.0000      -0.349616        -9.5135
  31   0.0000       0.078281         2.1301
  32   0.0000       0.086365         2.3501
  33   0.0000       0.092483         2.5166
  34   0.0000       0.096447         2.6245
  35   0.0000       0.102894         2.7999

MULLIKEN ATOMIC CHARGES
-----------------------
   0 C :   -0.035977
   1 C :   -0.077904
   2 C :   -0.037130
   3 C :   -0.028092
   4 C :   -0.110210
   5 C :   -0.023623
   6 C :   -0.011736
   7 C :    0.040540
   8 C :    0.012571
   9 C :   -0.008043
  10 O :   -0.298609
  11 H :    0.042607
  12 H :    0.027992
  13 H :    0.026888
  14 H :    0.029170
  15 H :    0.013314
  16 H :    0.026933
  17 H :    0.024823
  18 H :    0.042999
  19 H :    0.032675
  20 H :    0.024121
  21 H :    0.032980
  22 H :    0.041815
  23 H :    0.031821
  24 H :    0.010690
  25 H :    0.025751
  26 H :    0.143633
Sum of atomic charges:   -0.0000000

LOEWDIN ATOMIC CHARGES
----------------------
   0 C :   -0.102350
   1 C :   -0.072370
   2 C :   -0.042315
   3 C :   -0.070624
   4 C :   -0.067009
   5 C :   -0.069445
   6 C :   -0.066731
   7 C :   -0.051857
   8 C :   -0.045683
   9 C :   -0.029143
  10 O :   -0.064708
  11 H :    0.048912
  12 H :    0.040582
  13 H :    0.043451
  14 H :    0.048034
  15 H :    0.040319
  16 H :    0.034859
  17 H :    0.035221
  18 H :    0.050167
  19 H :    0.048992
  20 H :    0.042770
  21 H :    0.048495
  22 H :    0.049678
  23 H :    0.042643
  24 H :    0.038862
  25 H :    0.044008
  26 H :    0.025243

  Mayer bond orders larger than 0.100000
B(  0-C ,  1-C ) :   0.9976 B(  0-C , 11-H ) :   0.9918 B(  0-C , 12-H ) :   0.9924
B(  0-C , 13-H ) :   0.9883 B(  1-C ,  2-C ) :   1.0279 B(  1-C ,  4-C ) :   0.9550
B(  1-C , 14-H ) :   0.9910 B(  2-C ,  3-C ) :   1.9493 B(  2-C , 15-H ) :   1.0014
B(  3-C , 16-H ) :   0.9951 B(  3-C , 17-H ) :   0.9933 B(  4-C ,  5-C ) :   0.9984
B(  4-C ,  9-C ) :   1.0434 B(  4-C , 18-H ) :   0.9859 B(  5-C ,  6-C ) :   0.9852
B(  5-C , 19-H ) :   0.9907 B(  5-C , 20-H ) :   0.9994 B(  6-C ,  7-C ) :   0.9859
B(  6-C , 21-H ) :   0.9869 B(  6-C , 22-H ) :   0.9987 B(  7-C ,  8-C ) :   1.0143
B(  7-C , 10-O ) :   0.9817 B(  7-C , 23-H ) :   0.9921 B(  8-C ,  9-C ) :   1.9235
B(  8-C , 24-H ) :   0.9846 B(  9-C , 25-H ) :   0.9885 B( 10-O , 26-H ) :   1.0643

Dispersion correction           -0.032452513
FINAL SINGLE POINT ENERGY       -82.647574327454

DIPOLE MOMENT
-------------

Method             : SCF
Type of density    : Electron Density
Multiplicity       :   1
Irrep              :   0
Energy             :   -82.6151218140814763 Eh
Relativity type    :
Basis              : AO
                                X                 Y                 Z
Electronic contribution:      4.926774912       1.140192959       2.164200216
Nuclear contribution   :     -4.869262540      -1.470408089      -1.670117846
                        -----------------------------------------
Total Dipole Moment    :      0.057512372      -0.330215129       0.494082370
                        -----------------------------------------
Magnitude (a.u.)       :      0.597048652
Magnitude (Debye)      :      1.517577069

VIBRATIONAL FREQUENCIES
-----------------------

Scaling factor for frequencies =  1.000000000  (already applied!)

     0:       0.00 cm**-1
     1:       0.00 cm**-1
     2:       0.00 cm**-1
     3:       0.00 cm**-1
     4:       0.00 cm**-1
     5:       0.00 cm**-1
     6:      36.96 cm**-1
     7:      54.44 cm**-1
     8:      89.08 cm**-1
     9:     173.21 cm**-1
    10:     197.65 cm**-1
    11:     227.87 cm**-1
    12:     240.78 cm**-1
    13:     287.25 cm**-1
    14:     313.85 cm**-1
    15:     349.77 cm**-1
    16:     360.67 cm**-1
    17:     383.33 cm**-1
    18:     431.07 cm**-1
    19:     466.79 cm**-1
    20:     520.19 cm**-1
    21:     565.11 cm**-1
    22:     609.64 cm**-1
    23:     704.34 cm**-1
    24:     741.60 cm**-1
    25:     764.54 cm**-1
    26:     851.58 cm**-1
    27:     876.15 cm**-1
    28:     903.31 cm**-1
    29:     965.88 cm**-1
    30:     969.67 cm**-1
    31:     992.04 cm**-1
    32:    1008.66 cm**-1
    33:    1021.73 cm**-1
    34:    1029.16 cm**-1
    35:    1049.96 cm**-1
    36:    1057.95 cm**-1
    37:    1112.46 cm**-1
    38:    1120.72 cm**-1
    39:    1131.27 cm**-1
    40:    1147.28 cm**-1
    41:    1157.06 cm**-1
    42:    1197.98 cm**-1
    43:    1215.72 cm**-1
    44:    1240.89 cm**-1
    45:    1289.67 cm**-1
    46:    1301.01 cm**-1
    47:    1312.91 cm**-1
    48:    1346.85 cm**-1
    49:    1356.60 cm**-1
    50:    1379.68 cm**-1
    51:    1383.22 cm**-1
    52:    1401.46 cm**-1
    53:    1412.69 cm**-1
    54:    1427.73 cm**-1
    55:    1441.45 cm**-1
    56:    1462.63 cm**-1
    57:    1476.08 cm**-1
    58:    1483.02 cm**-1
    59:    1519.64 cm**-1
    60:    1524.30 cm**-1
    61:    1529.68 cm**-1
    62:    1545.97 cm**-1
    63:    1770.29 cm**-1
    64:    1782.38 cm**-1
    65:    3042.04 cm**-1
    66:    3069.94 cm**-1
    67:    3099.35 cm**-1
    68:    3104.45 cm**-1
    69:    3112.61 cm**-1
    70:    3121.45 cm**-1
    71:    3176.75 cm**-1
    72:    3178.44 cm**-1
    73:    3185.54 cm**-1
    74:    3188.62 cm**-1
    75:    3207.81 cm**-1
    76:    3208.57 cm**-1
    77:    3209.23 cm**-1
    78:    3246.19 cm**-1
    79:    3302.96 cm**-1
    80:    3964.22 cm**-1

IR SPECTRUM
-----------

 Mode   freq       eps      Int      T**2         TX        TY        TZ
       cm**-1   L/(mol*cm) km/mol    a.u.
----------------------------------------------------------------------------
  6:     36.96   0.000037    0.19  0.000309  ( 0.009075  0.015056 -0.000678)
  7:     54.44   0.000084    0.42  0.000479  (-0.020922 -0.002328  0.005979)
  8:     89.08   0.000043    0.22  0.000151  (-0.004678  0.003221  0.010917)
  9:    173.21   0.000506    2.55  0.000911  (-0.007995  0.026766  0.011423)
 10:    197.65   0.000124    0.63  0.000196  (-0.005980  0.012130  0.003674)
 11:    227.87   0.001425    7.20  0.001951  (-0.023136  0.033069  0.017962)
 12:    240.78   0.024337  122.99  0.031542  ( 0.095929 -0.127750 -0.077583)
 13:    287.25   0.000192    0.97  0.000208  ( 0.010133 -0.010251 -0.000671)
 14:    313.85   0.000005    0.03  0.000005  ( 0.001297  0.000419 -0.001827)
 15:    349.77   0.000912    4.61  0.000813  (-0.008856 -0.026690 -0.004758)
 16:    360.67   0.000303    1.53  0.000262  ( 0.013127  0.009333 -0.001589)
 17:    383.33   0.000393    1.99  0.000320  ( 0.003829  0.004587  0.016861)
 18:    431.07   0.000706    3.57  0.000511  ( 0.005553  0.018529 -0.011706)
 19:    466.79   0.000238    1.20  0.000159  (-0.009414 -0.008413 -0.000089)
 20:    520.19   0.000866    4.38  0.000520  ( 0.018651 -0.001657 -0.013001)
 21:    565.11   0.000505    2.55  0.000279  ( 0.006411  0.006389 -0.014030)
 22:    609.64   0.001789    9.04  0.000916  ( 0.022333  0.008343 -0.018642)
 23:    704.34   0.000562    2.84  0.000249  ( 0.010630  0.007418  0.008993)
 24:    741.60   0.002022   10.22  0.000851  ( 0.027273 -0.007542  0.007090)
 25:    764.54   0.005635   28.47  0.002300  ( 0.024013 -0.033413  0.024633)
 26:    851.58   0.000545    2.75  0.000200  ( 0.012186 -0.006970  0.001632)
 27:    876.15   0.001985   10.03  0.000707  ( 0.019822 -0.017616  0.001945)
 28:    903.31   0.000633    3.20  0.000219  (-0.001057  0.001756 -0.014640)
 29:    965.88   0.009632   48.68  0.003112  ( 0.050930 -0.007435  0.021513)
 30:    969.67   0.001039    5.25  0.000334  (-0.001866  0.017565 -0.004712)
 31:    992.04   0.002011   10.16  0.000633  (-0.003319 -0.024244  0.005814)
 32:   1008.66   0.001177    5.95  0.000364  ( 0.002779 -0.012500 -0.014149)
 33:   1021.73   0.001517    7.67  0.000463  ( 0.003988 -0.018999  0.009296)
 34:   1029.16   0.000131    0.66  0.000040  ( 0.003895 -0.003927  0.003015)
 35:   1049.96   0.001437    7.26  0.000427  ( 0.020346  0.001259  0.003392)
 36:   1057.95   0.002128   10.75  0.000628  (-0.014664  0.012621 -0.015918)
 37:   1112.46   0.002499   12.63  0.000701  (-0.010516 -0.019457  0.014560)
 38:   1120.72   0.005426   27.42  0.001511  (-0.025166 -0.019248  0.022517)
 39:   1131.27   0.020245  102.31  0.005585  (-0.056787 -0.019987  0.044277)
 40:   1147.28   0.000851    4.30  0.000232  (-0.001633 -0.012342  0.008753)
 41:   1157.06   0.000032    0.16  0.000009  (-0.001139 -0.001935 -0.001860)
 42:   1197.98   0.000497    2.51  0.000130  ( 0.007278  0.004886 -0.007260)
 43:   1215.72   0.003032   15.32  0.000778  ( 0.007809  0.016681 -0.020953)
 44:   1240.89   0.001209    6.11  0.000304  (-0.012839 -0.005879  0.010234)
 45:   1289.67   0.000523    2.64  0.000126  ( 0.006876 -0.008775  0.001479)
 46:   1301.01   0.001744    8.81  0.000418  ( 0.015058  0.005437 -0.012727)
 47:   1312.91   0.006345   32.06  0.001508  ( 0.014635  0.022147 -0.028345)
 48:   1346.85   0.000273    1.38  0.000063  ( 0.004842  0.004724 -0.004177)
 49:   1356.60   0.000071    0.36  0.000016  ( 0.001737 -0.002557  0.002581)
 50:   1379.68   0.002325   11.75  0.000526  (-0.015949 -0.005595  0.015501)
 51:   1383.22   0.001568    7.93  0.000354  ( 0.014106 -0.004998 -0.011397)
 52:   1401.46   0.000817    4.13  0.000182  ( 0.010167  0.006479 -0.006046)
 53:   1412.69   0.000289    1.46  0.000064  ( 0.006402 -0.003417 -0.003331)
 54:   1427.73   0.001631    8.24  0.000357  ( 0.008799  0.006140 -0.015538)
 55:   1441.45   0.002159   10.91  0.000467  ( 0.019971  0.007949  0.002316)
 56:   1462.63   0.002296   11.60  0.000490  (-0.011249 -0.002350  0.018915)
 57:   1476.08   0.000238    1.20  0.000050  (-0.007006 -0.000995 -0.000437)
 58:   1483.02   0.001291    6.53  0.000272  ( 0.000388  0.016335 -0.002171)
 59:   1519.64   0.002236   11.30  0.000459  (-0.002387 -0.016656  0.013268)
 60:   1524.30   0.001541    7.79  0.000315  ( 0.010974 -0.013880  0.001513)
 61:   1529.68   0.000724    3.66  0.000148  ( 0.003732  0.000000  0.011565)
 62:   1545.97   0.001992   10.07  0.000402  (-0.000439 -0.006556 -0.018944)
 63:   1770.29   0.003035   15.34  0.000535  (-0.003357  0.022546  0.003929)
 64:   1782.38   0.000974    4.92  0.000171  (-0.011929 -0.005317 -0.000125)
 65:   3042.04   0.008608   43.50  0.000883  (-0.015621  0.024055 -0.007774)
 66:   3069.94   0.003494   17.66  0.000355  ( 0.011188  0.003678 -0.014713)
 67:   3099.35   0.003762   19.01  0.000379  (-0.017711 -0.002605 -0.007639)
 68:   3104.45   0.008587   43.39  0.000863  ( 0.006351  0.028097 -0.005777)
 69:   3112.61   0.001274    6.44  0.000128  ( 0.008428  0.007009 -0.002751)
 70:   3121.45   0.005670   28.65  0.000567  (-0.004565 -0.003706  0.023071)
 71:   3176.75   0.004449   22.48  0.000437  (-0.003701  0.018803  0.008354)
 72:   3178.44   0.003867   19.54  0.000380  ( 0.019158  0.001790  0.003070)
 73:   3185.54   0.002169   10.96  0.000212  ( 0.010027  0.007955 -0.006973)
 74:   3188.62   0.004958   25.06  0.000485  (-0.004472  0.012827 -0.017342)
 75:   3207.81   0.004411   22.29  0.000429  (-0.004525  0.013348  0.015181)
 76:   3208.57   0.000194    0.98  0.000019  (-0.003177  0.002885 -0.000641)
 77:   3209.23   0.002606   13.17  0.000253  (-0.015251 -0.004282 -0.001594)
 78:   3246.19   0.002400   12.13  0.000231  ( 0.003764  0.007521  0.012647)
 79:   3302.96   0.001054    5.33  0.000100  ( 0.004603 -0.001982 -0.008629)
 80:   3964.22   0.010891   55.04  0.000857  (-0.028090 -0.007714 -0.002963)

--------------------------
THERMOCHEMISTRY AT 298.15K
--------------------------

Temperature         ...   298.15 K
Pressure            ...     1.00 atm
Total Mass          ...   152.24 AMU
Quasi RRHO          ...     True
Cut-Off Frequency   ...     1.00 cm^-1

Throughout the following assumptions are being made:
  (1) The electronic state is orbitally nondegenerate
  (2) There are no thermally accessible electronically excited states
  (3) Hindered rotations indicated by low frequency modes are not
      treated as such but are treated as vibrations and this may
      cause some error
  (4) All equations used are the standard statistical mechanics
      equations for an ideal gas
  (5) All vibrations are strictly harmonic

freq.      36.96  E(vib)   ...       0.54
freq.      54.44  E(vib)   ...       0.52
freq.      89.08  E(vib)   ...       0.47
freq.     173.21  E(vib)   ...       0.38
freq.     197.65  E(vib)   ...       0.35
freq.     227.87  E(vib)   ...       0.33
freq.     240.78  E(vib)   ...       0.31
freq.     287.25  E(vib)   ...       0.27
freq.     313.85  E(vib)   ...       0.25
freq.     349.77  E(vib)   ...       0.23
freq.     360.67  E(vib)   ...       0.22
freq.     383.33  E(vib)   ...       0.20
freq.     431.07  E(vib)   ...       0.18
freq.     466.79  E(vib)   ...       0.16
freq.     520.19  E(vib)   ...       0.13
freq.     565.11  E(vib)   ...       0.11
freq.     609.64  E(vib)   ...       0.10
freq.     704.34  E(vib)   ...       0.07
freq.     741.60  E(vib)   ...       0.06
freq.     764.54  E(vib)   ...       0.06
freq.     851.58  E(vib)   ...       0.04
freq.     876.15  E(vib)   ...       0.04
freq.     903.31  E(vib)   ...       0.03
freq.     965.88  E(vib)   ...       0.03
freq.     969.67  E(vib)   ...       0.03
freq.     992.04  E(vib)   ...       0.02
freq.    1008.66  E(vib)   ...       0.02
freq.    1021.73  E(vib)   ...       0.02
freq.    1029.16  E(vib)   ...       0.02
freq.    1049.96  E(vib)   ...       0.02
freq.    1057.95  E(vib)   ...       0.02
freq.    1112.46  E(vib)   ...       0.01
freq.    1120.72  E(vib)   ...       0.01
freq.    1131.27  E(vib)   ...       0.01
freq.    1147.28  E(vib)   ...       0.01
freq.    1157.06  E(vib)   ...       0.01
freq.    1197.98  E(vib)   ...       0.01
freq.    1215.72  E(vib)   ...       0.01
freq.    1240.89  E(vib)   ...       0.01
freq.    1289.67  E(vib)   ...       0.01
freq.    1301.01  E(vib)   ...       0.01
freq.    1312.91  E(vib)   ...       0.01
freq.    1346.85  E(vib)   ...       0.01
freq.    1356.60  E(vib)   ...       0.01
freq.    1379.68  E(vib)   ...       0.01
freq.    1383.22  E(vib)   ...       0.00
freq.    1401.46  E(vib)   ...       0.00
freq.    1412.69  E(vib)   ...       0.00
freq.    1427.73  E(vib)   ...       0.00
freq.    1441.45  E(vib)   ...       0.00
freq.    1462.63  E(vib)   ...       0.00
freq.    1476.08  E(vib)   ...       0.00
freq.    1483.02  E(vib)   ...       0.00
freq.    1519.64  E(vib)   ...       0.00
freq.    1524.30  E(vib)   ...       0.00
freq.    1529.68  E(vib)   ...       0.00
freq.    1545.97  E(vib)   ...       0.00
freq.    1770.29  E(vib)   ...       0.00
freq.    1782.38  E(vib)   ...       0.00
freq.    3042.04  E(vib)   ...       0.00
freq.    3069.94  E(vib)   ...       0.00
freq.    3099.35  E(vib)   ...       0.00
freq.    3104.45  E(vib)   ...       0.00
freq.    3112.61  E(vib)   ...       0.00
freq.    3121.45  E(vib)   ...       0.00
freq.    3176.75  E(vib)   ...       0.00
freq.    3178.44  E(vib)   ...       0.00
freq.    3185.54  E(vib)   ...       0.00
freq.    3188.62  E(vib)   ...       0.00
freq.    3207.81  E(vib)   ...       0.00
freq.    3208.57  E(vib)   ...       0.00
freq.    3209.23  E(vib)   ...       0.00
freq.    3246.19  E(vib)   ...       0.00
freq.    3302.96  E(vib)   ...       0.00
freq.    3964.22  E(vib)   ...       0.00

------------
INNER ENERGY
------------

The inner energy is: U= E(el) + E(ZPE) + E(vib) + E(rot) + E(trans)
    E(el)   - is the total energy from the electronic structure calculation
              = E(kin-el) + E(nuc-el) + E(el-el) + E(nuc-nuc)
    E(ZPE)  - the the zero temperature vibrational energy from the frequency calculation
    E(vib)  - the the finite temperature correction to E(ZPE) due to population
              of excited vibrational states
    E(rot)  - is the rotational thermal energy
    E(trans)- is the translational thermal energy

Summary of contributions to the inner energy U:
Electronic energy                ...    -82.64757433 Eh
Zero point energy                ...      0.24634528 Eh     154.58 kcal/mol
Thermal vibrational correction   ...      0.00862778 Eh       5.41 kcal/mol
Thermal rotational correction    ...      0.00141627 Eh       0.89 kcal/mol
Thermal translational correction ...      0.00141627 Eh       0.89 kcal/mol
-----------------------------------------------------------------------
Total thermal energy                    -82.38976872 Eh

Summary of corrections to the electronic energy:
(perhaps to be used in another calculation)
Total thermal correction                  0.01146033 Eh       7.19 kcal/mol
Non-thermal (ZPE) correction              0.24634528 Eh     154.58 kcal/mol
-----------------------------------------------------------------------
Total correction                          0.25780561 Eh     161.78 kcal/mol

--------
ENTHALPY
--------

The enthalpy is H = U + kB*T
                kB is Boltzmann's constant
Total thermal energy              ...    -82.38976872 Eh
Thermal Enthalpy correction       ...      0.00094421 Eh       0.59 kcal/mol
-----------------------------------------------------------------------
Total Enthalpy                    ...    -82.38882451 Eh

Note: Only C1 symmetry has been detected, increase convergence thresholds
      if your molecule has a higher symmetry. Symmetry factor of 1.0 is
      used for the rotational entropy correction.

Note: Rotational entropy computed according to Herzberg
Infrared and Raman Spectra, Chapter V,1, Van Nostrand Reinhold, 1945
Point Group:  C1, Symmetry Number:   1
Rotational constants in cm-1:     0.060495     0.023638     0.020135

Vibrational entropy computed according to the QRRHO of S. Grimme
Chem.Eur.J. 2012 18 9955 using a reference frequency of 100.0 cm-1

-------
ENTROPY
-------

The entropy contributions are T*S = T*(S(el)+S(vib)+S(rot)+S(trans))
     S(el)   - electronic entropy
     S(vib)  - vibrational entropy
     S(rot)  - rotational entropy
     S(trans)- translational entropy

                             ****ORCA TERMINATED NORMALLY****
TOTAL RUN TIME: 0 days 0 hours 13 minutes 23 seconds 356 msec
