                         Program Version 6.0.1  -  RELEASE   -
|  1> ! wB97X-3c OPT FREQ TightSCF
|  2> %pal
|  3>   nprocs 40
|  4> end
|  5> * xyz 0 1
|  6> C      4.142586     0.869256    -0.767379
|  7> C      2.960782     0.076107    -0.309445
|  8> C      1.743863     0.630583    -0.257285
|  9> C      0.520985    -0.092854     0.171900
| 10> C     -0.731598     0.427595    -0.195338
| 11> C     -1.923510    -0.215551     0.193683
| 12> C     -1.853574    -1.382801     0.965265
| 13> C     -0.609533    -1.898282     1.347379
| 14> C      0.569422    -1.258783     0.959562
| 15> O     -3.028876    -2.024425     1.352700
| 16> O     -3.189657     0.273413    -0.165018
| 17> C     -3.411325     1.444916    -0.943499
| 18> H      3.977319     1.233388    -1.803495
| 19> H      5.051460     0.231908    -0.752660
| 20> H      4.301852     1.736070    -0.091679
| 21> H      3.118433    -0.961230    -0.048817
| 22> H      1.633283     1.658694    -0.585073
| 23> H     -0.771326     1.329805    -0.791590
| 24> H     -0.555328    -2.794024     1.953144
| 25> H      1.508784    -1.670871     1.300068
| 26> H     -3.012529    -2.869559     1.911640
| 27> H     -2.991155     2.332850    -0.425568
| 28> H     -4.503002     1.592987    -1.072533
| 29> H     -2.947358     1.330807    -1.945963
| 30> *
| 31>
| 32>                          ****END OF INPUT****
 Total Charge           Charge          ....    0
 Multiplicity           Mult            ....    1
 Number of Electrons    NEL             ....   64
Dispersion correction           -0.028458820
FINAL SINGLE POINT ENERGY       -96.248824852190
Dispersion correction             ... done (  0.1 sec)
Dispersion correction           -0.029013476
FINAL SINGLE POINT ENERGY       -96.266552323033
Dispersion correction             ... done (  0.1 sec)
Dispersion correction           -0.029121938
FINAL SINGLE POINT ENERGY       -96.268414674738
Dispersion correction             ... done (  0.1 sec)
FINAL SINGLE POINT ENERGY       -96.268748962819
FINAL SINGLE POINT ENERGY       -96.268794632983
FINAL SINGLE POINT ENERGY       -96.268804775126
FINAL SINGLE POINT ENERGY       -96.268822720750
FINAL SINGLE POINT ENERGY       -96.268906117472
FINAL SINGLE POINT ENERGY       -96.269018372668
FINAL SINGLE POINT ENERGY       -96.269159818733
FINAL SINGLE POINT ENERGY       -96.270760905119
FINAL SINGLE POINT ENERGY       -96.271061027731
FINAL SINGLE POINT ENERGY       -96.271404427284
FINAL SINGLE POINT ENERGY       -96.271728631697
FINAL SINGLE POINT ENERGY       -96.271778472867
FINAL SINGLE POINT ENERGY       -96.271735384938
FINAL SINGLE POINT ENERGY       -96.271837812930
Dispersion correction             ... done (  0.1 sec)
Dispersion correction           -0.029072882
FINAL SINGLE POINT ENERGY       -96.271839405370
Dispersion correction             ... done (  0.1 sec)
Dispersion correction           -0.029072831
FINAL SINGLE POINT ENERGY       -96.271840125972
Dispersion correction             ... done (  0.1 sec)
                    ***********************HURRAY********************

CARTESIAN COORDINATES (ANGSTROEM)
---------------------------------
  C      4.111177    0.863770   -0.780643
  C      2.904497    0.114396   -0.331356
  C      1.689163    0.636740   -0.229974
  C      0.479827   -0.067338    0.217890
  C     -0.766603    0.406571   -0.194832
  C     -1.939629   -0.221073    0.173451
  C     -1.878208   -1.356814    0.988444
  C     -0.651039   -1.818258    1.411423
  C      0.520947   -1.180808    1.036343
  O     -3.049561   -1.945335    1.333441
  O     -3.175151    0.177859   -0.194367
  C     -3.292688    1.315632   -1.006488
  H      3.869416    1.896374   -1.026111
  H      4.554979    0.397983   -1.661222
  H      4.877492    0.869859   -0.004574
  H      3.052022   -0.932223   -0.084646
  H      1.548557    1.674402   -0.517475
  H     -0.801786    1.280664   -0.827321
  H     -0.609108   -2.686378    2.057797
  H      1.465467   -1.550279    1.407621
  H     -2.876435   -2.706614    1.887194
  H     -2.888086    2.200022   -0.511513
  H     -4.354976    1.457555   -1.178424
  H     -2.790274    1.173291   -1.964658

 Multiplicity           Mult            ....    1
 Number of Electrons    NEL             ....   64
 Basis Dimension        Dim             ....  216

ORBITAL ENERGIES
----------------

  NO   OCC          E(Eh)            E(eV)
   0   2.0000      -1.206429       -32.8286
   1   2.0000      -1.181962       -32.1628
   2   2.0000      -1.004082       -27.3225
   3   2.0000      -0.941985       -25.6327
   4   2.0000      -0.897912       -24.4334
   5   2.0000      -0.889460       -24.2035
   6   2.0000      -0.838695       -22.8220
   7   2.0000      -0.810542       -22.0560
   8   2.0000      -0.754263       -20.5245
   9   2.0000      -0.733440       -19.9579
  10   2.0000      -0.680802       -18.5256
  11   2.0000      -0.668496       -18.1907
  12   2.0000      -0.637476       -17.3466
  13   2.0000      -0.615934       -16.7604
  14   2.0000      -0.595064       -16.1925
  15   2.0000      -0.588257       -16.0073
  16   2.0000      -0.560077       -15.2405
  17   2.0000      -0.551838       -15.0163
  18   2.0000      -0.537954       -14.6385
  19   2.0000      -0.531844       -14.4722
  20   2.0000      -0.527891       -14.3646
  21   2.0000      -0.518079       -14.0976
  22   2.0000      -0.495967       -13.4959
  23   2.0000      -0.478011       -13.0073
  24   2.0000      -0.467871       -12.7314
  25   2.0000      -0.462980       -12.5983
  26   2.0000      -0.450857       -12.2684
  27   2.0000      -0.441104       -12.0031
  28   2.0000      -0.435687       -11.8557
  29   2.0000      -0.375262       -10.2114
  30   2.0000      -0.331762        -9.0277
  31   2.0000      -0.289341        -7.8734
  32   0.0000       0.054384         1.4799
  33   0.0000       0.076579         2.0838
  34   0.0000       0.077385         2.1058
  35   0.0000       0.088514         2.4086
  36   0.0000       0.095221         2.5911

MULLIKEN ATOMIC CHARGES
-----------------------
   0 C :   -0.064712
   1 C :   -0.036323
   2 C :   -0.018167
   3 C :   -0.085084
   4 C :   -0.031070
   5 C :    0.101259
   6 C :    0.056437
   7 C :   -0.017046
   8 C :    0.002777
   9 O :   -0.188840
  10 O :   -0.273982
  11 C :    0.090242
  12 H :    0.026882
  13 H :    0.042011
  14 H :    0.044081
  15 H :    0.021913
  16 H :    0.017162
  17 H :    0.004081
  18 H :    0.010481
  19 H :    0.014062
  20 H :    0.154483
  21 H :    0.039175
  22 H :    0.051032
  23 H :    0.039146
Sum of atomic charges:   -0.0000000

LOEWDIN ATOMIC CHARGES
----------------------
   0 C :   -0.116002
   1 C :   -0.044646
   2 C :   -0.052899
   3 C :   -0.059098
   4 C :   -0.044761
   5 C :   -0.032767
   6 C :   -0.023590
   7 C :   -0.058625
   8 C :   -0.045807
   9 O :    0.001076
  10 O :   -0.019036
  11 C :   -0.060204
  12 H :    0.048775
  13 H :    0.049744
  14 H :    0.049942
  15 H :    0.039010
  16 H :    0.043268
  17 H :    0.040666
  18 H :    0.042734
  19 H :    0.043553
  20 H :    0.049480
  21 H :    0.045036
  22 H :    0.058878
  23 H :    0.045274

  Mayer bond orders larger than 0.100000
B(  0-C ,  1-C ) :   1.0356 B(  0-C , 12-H ) :   0.9920 B(  0-C , 13-H ) :   0.9789
B(  0-C , 14-H ) :   0.9778 B(  1-C ,  2-C ) :   1.8373 B(  1-C , 15-H ) :   0.9944
B(  2-C ,  3-C ) :   1.1192 B(  2-C , 16-H ) :   0.9902 B(  3-C ,  4-C ) :   1.3938
B(  3-C ,  8-C ) :   1.4589 B(  4-C ,  5-C ) :   1.4725 B(  4-C , 17-H ) :   0.9760
B(  5-C ,  6-C ) :   1.3761 B(  5-C , 10-O ) :   1.0904 B(  6-C ,  7-C ) :   1.4586
B(  6-C ,  9-O ) :   1.1194 B(  7-C ,  8-C ) :   1.4269 B(  7-C , 18-H ) :   0.9749
B(  8-C , 19-H ) :   0.9811 B(  9-O , 20-H ) :   1.0398 B( 10-O , 11-C ) :   0.9467
B( 11-C , 21-H ) :   0.9889 B( 11-C , 22-H ) :   1.0045 B( 11-C , 23-H ) :   0.9889

Dispersion correction           -0.029072435
FINAL SINGLE POINT ENERGY       -96.271840187919

DIPOLE MOMENT
-------------

Method             : SCF
Type of density    : Electron Density
Multiplicity       :   1
Irrep              :   0
Energy             :   -96.2427677529611998 Eh
Relativity type    :
Basis              : AO
                                X                 Y                 Z
Electronic contribution:     -6.568090817      -5.903753669       4.869894890
Nuclear contribution   :      7.047762948       5.998171317      -4.941433102
                        -----------------------------------------
Total Dipole Moment    :      0.479672131       0.094417649      -0.071538212
                        -----------------------------------------
Magnitude (a.u.)       :      0.494082747
Magnitude (Debye)      :      1.255858539

VIBRATIONAL FREQUENCIES
-----------------------

Scaling factor for frequencies =  1.000000000  (already applied!)

     0:       0.00 cm**-1
     1:       0.00 cm**-1
     2:       0.00 cm**-1
     3:       0.00 cm**-1
     4:       0.00 cm**-1
     5:       0.00 cm**-1
     6:      53.06 cm**-1
     7:      81.62 cm**-1
     8:     108.84 cm**-1
     9:     115.00 cm**-1
    10:     183.20 cm**-1
    11:     199.59 cm**-1
    12:     228.64 cm**-1
    13:     240.81 cm**-1
    14:     296.36 cm**-1
    15:     318.83 cm**-1
    16:     331.83 cm**-1
    17:     339.78 cm**-1
    18:     403.21 cm**-1
    19:     407.98 cm**-1
    20:     476.09 cm**-1
    21:     524.49 cm**-1
    22:     578.00 cm**-1
    23:     621.61 cm**-1
    24:     647.10 cm**-1
    25:     758.43 cm**-1
    26:     791.96 cm**-1
    27:     820.98 cm**-1
    28:     828.77 cm**-1
    29:     849.34 cm**-1
    30:     901.80 cm**-1
    31:     948.69 cm**-1
    32:     962.84 cm**-1
    33:    1008.69 cm**-1
    34:    1015.50 cm**-1
    35:    1091.92 cm**-1
    36:    1115.09 cm**-1
    37:    1150.08 cm**-1
    38:    1173.43 cm**-1
    39:    1202.56 cm**-1
    40:    1205.05 cm**-1
    41:    1234.76 cm**-1
    42:    1247.69 cm**-1
    43:    1306.65 cm**-1
    44:    1332.86 cm**-1
    45:    1349.19 cm**-1
    46:    1365.59 cm**-1
    47:    1368.08 cm**-1
    48:    1412.29 cm**-1
    49:    1446.54 cm**-1
    50:    1490.05 cm**-1
    51:    1509.69 cm**-1
    52:    1516.16 cm**-1
    53:    1526.72 cm**-1
    54:    1529.38 cm**-1
    55:    1537.55 cm**-1
    56:    1616.93 cm**-1
    57:    1710.39 cm**-1
    58:    1722.63 cm**-1
    59:    1793.16 cm**-1
    60:    3086.61 cm**-1
    61:    3099.91 cm**-1
    62:    3172.16 cm**-1
    63:    3178.27 cm**-1
    64:    3201.60 cm**-1
    65:    3206.26 cm**-1
    66:    3220.92 cm**-1
    67:    3228.23 cm**-1
    68:    3235.90 cm**-1
    69:    3274.27 cm**-1
    70:    3277.41 cm**-1
    71:    3967.12 cm**-1

IR SPECTRUM
-----------

 Mode   freq       eps      Int      T**2         TX        TY        TZ
       cm**-1   L/(mol*cm) km/mol    a.u.
----------------------------------------------------------------------------
  6:     53.06   0.000060    0.30  0.000354  (-0.002650  0.003806  0.018232)
  7:     81.62   0.001086    5.49  0.004153  ( 0.002725 -0.037433 -0.052383)
  8:    108.84   0.000392    1.98  0.001124  ( 0.001404  0.019607  0.027160)
  9:    115.00   0.000213    1.07  0.000577  ( 0.003719 -0.015886 -0.017634)
 10:    183.20   0.000005    0.02  0.000008  (-0.002097  0.001710 -0.000877)
 11:    199.59   0.000229    1.16  0.000358  (-0.006371 -0.006802 -0.016467)
 12:    228.64   0.001296    6.55  0.001769  (-0.041227 -0.007569  0.003435)
 13:    240.81   0.000107    0.54  0.000139  ( 0.000180 -0.009899 -0.006417)
 14:    296.36   0.002477   12.52  0.002608  (-0.000505 -0.032472 -0.039417)
 15:    318.83   0.017780   89.86  0.017403  (-0.012151  0.073261  0.109034)
 16:    331.83   0.000478    2.41  0.000449  (-0.002276 -0.005533  0.020333)
 17:    339.78   0.001085    5.48  0.000996  (-0.025310 -0.018634 -0.002893)
 18:    403.21   0.000815    4.12  0.000631  ( 0.002669 -0.019318 -0.015826)
 19:    407.98   0.000192    0.97  0.000147  ( 0.008638 -0.005654  0.006345)
 20:    476.09   0.000514    2.60  0.000337  ( 0.004420 -0.010441 -0.014438)
 21:    524.49   0.000143    0.72  0.000085  (-0.006175  0.005037 -0.004647)
 22:    578.00   0.000513    2.59  0.000277  ( 0.011907  0.009061 -0.007295)
 23:    621.61   0.001586    8.01  0.000796  ( 0.023994 -0.003817 -0.014350)
 24:    647.10   0.002685   13.57  0.001295  (-0.024457 -0.024388 -0.010086)
 25:    758.43   0.000312    1.58  0.000128  (-0.000470  0.004414  0.010422)
 26:    791.96   0.001822    9.21  0.000718  (-0.021487 -0.007471 -0.014157)
 27:    820.98   0.005132   25.94  0.001951  ( 0.009639  0.028485  0.032351)
 28:    828.77   0.006195   31.31  0.002333  ( 0.040333  0.000654 -0.026560)
 29:    849.34   0.001456    7.36  0.000535  (-0.004235  0.017042  0.015055)
 30:    901.80   0.004206   21.26  0.001456  (-0.010835  0.023949  0.027652)
 31:    948.69   0.003287   16.61  0.001081  ( 0.028168 -0.009394  0.014125)
 32:    962.84   0.000699    3.53  0.000227  (-0.009800  0.011065  0.002855)
 33:   1008.69   0.004726   23.89  0.001462  (-0.010491 -0.016407 -0.032909)
 34:   1015.50   0.004956   25.04  0.001523  ( 0.000341  0.009762  0.037781)
 35:   1091.92   0.000065    0.33  0.000019  ( 0.002997  0.001265 -0.002840)
 36:   1115.09   0.005012   25.33  0.001403  ( 0.028737 -0.019225  0.014397)
 37:   1150.08   0.002665   13.47  0.000723  (-0.020590 -0.013934  0.010245)
 38:   1173.43   0.030762  155.46  0.008181  ( 0.042566  0.065857 -0.045077)
 39:   1202.56   0.017452   88.20  0.004529  ( 0.058692  0.027787 -0.017666)
 40:   1205.05   0.000157    0.79  0.000041  ( 0.000476 -0.003503 -0.005302)
 41:   1234.76   0.004394   22.21  0.001110  ( 0.032260 -0.004120  0.007268)
 42:   1247.69   0.001666    8.42  0.000417  (-0.015217  0.008972 -0.010230)
 43:   1306.65   0.026509  133.96  0.006331  ( 0.044363 -0.052792  0.039698)
 44:   1332.86   0.012165   61.48  0.002848  (-0.046676 -0.021687  0.014115)
 45:   1349.19   0.002298   11.61  0.000532  (-0.020691 -0.008665  0.005319)
 46:   1365.59   0.009042   45.69  0.002066  ( 0.042498 -0.011944  0.010837)
 47:   1368.08   0.004228   21.37  0.000964  ( 0.030995 -0.001860  0.000538)
 48:   1412.29   0.041555  210.00  0.009182  (-0.095211  0.006121 -0.008914)
 49:   1446.54   0.000872    4.41  0.000188  (-0.000112  0.012904 -0.004654)
 50:   1490.05   0.004564   23.06  0.000956  ( 0.010629 -0.024194  0.016045)
 51:   1509.69   0.002047   10.35  0.000423  ( 0.002572  0.005691  0.019601)
 52:   1516.16   0.002610   13.19  0.000537  ( 0.001834 -0.021446  0.008597)
 53:   1526.72   0.001788    9.03  0.000365  (-0.017527  0.006041  0.004663)
 54:   1529.38   0.002232   11.28  0.000455  (-0.002290  0.012860  0.016874)
 55:   1537.55   0.008662   43.77  0.001758  (-0.034517  0.017433 -0.016207)
 56:   1616.93   0.048803  246.63  0.009419  ( 0.096874  0.005844 -0.000298)
 57:   1710.39   0.010962   55.40  0.002000  (-0.028847  0.026909 -0.021068)
 58:   1722.63   0.004613   23.31  0.000836  ( 0.010138  0.022477 -0.015091)
 59:   1793.16   0.000363    1.83  0.000063  (-0.007614 -0.002217  0.000523)
 60:   3086.61   0.009721   49.13  0.000983  (-0.011557  0.023644 -0.017035)
 61:   3099.91   0.008369   42.29  0.000842  (-0.026574 -0.008943  0.007505)
 62:   3172.16   0.005201   26.28  0.000512  ( 0.001097 -0.013004 -0.018476)
 63:   3178.27   0.001524    7.70  0.000150  ( 0.001647  0.002989  0.011745)
 64:   3201.60   0.000502    2.54  0.000049  (-0.005124  0.004690 -0.000823)
 65:   3206.26   0.003005   15.19  0.000292  (-0.006651 -0.015026  0.004742)
 66:   3220.92   0.003833   19.37  0.000371  ( 0.000343  0.018912 -0.003688)
 67:   3228.23   0.001838    9.29  0.000178  (-0.012970  0.002107 -0.002235)
 68:   3235.90   0.002499   12.63  0.000241  (-0.008845 -0.010457  0.007310)
 69:   3274.27   0.000939    4.75  0.000090  ( 0.005851 -0.005010  0.005494)
 70:   3277.41   0.000571    2.88  0.000054  (-0.002790  0.005474 -0.004071)
 71:   3967.12   0.021975  111.05  0.001729  (-0.014255 -0.031944  0.022473)

--------------------------
THERMOCHEMISTRY AT 298.15K
--------------------------

Temperature         ...   298.15 K
Pressure            ...     1.00 atm
Total Mass          ...   164.20 AMU
Quasi RRHO          ...     True
Cut-Off Frequency   ...     1.00 cm^-1

Throughout the following assumptions are being made:
  (1) The electronic state is orbitally nondegenerate
  (2) There are no thermally accessible electronically excited states
  (3) Hindered rotations indicated by low frequency modes are not
      treated as such but are treated as vibrations and this may
      cause some error
  (4) All equations used are the standard statistical mechanics
      equations for an ideal gas
  (5) All vibrations are strictly harmonic

freq.      53.06  E(vib)   ...       0.52
freq.      81.62  E(vib)   ...       0.48
freq.     108.84  E(vib)   ...       0.45
freq.     115.00  E(vib)   ...       0.44
freq.     183.20  E(vib)   ...       0.37
freq.     199.59  E(vib)   ...       0.35
freq.     228.64  E(vib)   ...       0.32
freq.     240.81  E(vib)   ...       0.31
freq.     296.36  E(vib)   ...       0.27
freq.     318.83  E(vib)   ...       0.25
freq.     331.83  E(vib)   ...       0.24
freq.     339.78  E(vib)   ...       0.23
freq.     403.21  E(vib)   ...       0.19
freq.     407.98  E(vib)   ...       0.19
freq.     476.09  E(vib)   ...       0.15
freq.     524.49  E(vib)   ...       0.13
freq.     578.00  E(vib)   ...       0.11
freq.     621.61  E(vib)   ...       0.09
freq.     647.10  E(vib)   ...       0.09
freq.     758.43  E(vib)   ...       0.06
freq.     791.96  E(vib)   ...       0.05
freq.     820.98  E(vib)   ...       0.05
freq.     828.77  E(vib)   ...       0.04
freq.     849.34  E(vib)   ...       0.04
freq.     901.80  E(vib)   ...       0.03
freq.     948.69  E(vib)   ...       0.03
freq.     962.84  E(vib)   ...       0.03
freq.    1008.69  E(vib)   ...       0.02
freq.    1015.50  E(vib)   ...       0.02
freq.    1091.92  E(vib)   ...       0.02
freq.    1115.09  E(vib)   ...       0.01
freq.    1150.08  E(vib)   ...       0.01
freq.    1173.43  E(vib)   ...       0.01
freq.    1202.56  E(vib)   ...       0.01
freq.    1205.05  E(vib)   ...       0.01
freq.    1234.76  E(vib)   ...       0.01
freq.    1247.69  E(vib)   ...       0.01
freq.    1306.65  E(vib)   ...       0.01
freq.    1332.86  E(vib)   ...       0.01
freq.    1349.19  E(vib)   ...       0.01
freq.    1365.59  E(vib)   ...       0.01
freq.    1368.08  E(vib)   ...       0.01
freq.    1412.29  E(vib)   ...       0.00
freq.    1446.54  E(vib)   ...       0.00
freq.    1490.05  E(vib)   ...       0.00
freq.    1509.69  E(vib)   ...       0.00
freq.    1516.16  E(vib)   ...       0.00
freq.    1526.72  E(vib)   ...       0.00
freq.    1529.38  E(vib)   ...       0.00
freq.    1537.55  E(vib)   ...       0.00
freq.    1616.93  E(vib)   ...       0.00
freq.    1710.39  E(vib)   ...       0.00
freq.    1722.63  E(vib)   ...       0.00
freq.    1793.16  E(vib)   ...       0.00
freq.    3086.61  E(vib)   ...       0.00
freq.    3099.91  E(vib)   ...       0.00
freq.    3172.16  E(vib)   ...       0.00
freq.    3178.27  E(vib)   ...       0.00
freq.    3201.60  E(vib)   ...       0.00
freq.    3206.26  E(vib)   ...       0.00
freq.    3220.92  E(vib)   ...       0.00
freq.    3228.23  E(vib)   ...       0.00
freq.    3235.90  E(vib)   ...       0.00
freq.    3274.27  E(vib)   ...       0.00
freq.    3277.41  E(vib)   ...       0.00
freq.    3967.12  E(vib)   ...       0.00

------------
INNER ENERGY
------------

The inner energy is: U= E(el) + E(ZPE) + E(vib) + E(rot) + E(trans)
    E(el)   - is the total energy from the electronic structure calculation
              = E(kin-el) + E(nuc-el) + E(el-el) + E(nuc-nuc)
    E(ZPE)  - the the zero temperature vibrational energy from the frequency calculation
    E(vib)  - the the finite temperature correction to E(ZPE) due to population
              of excited vibrational states
    E(rot)  - is the rotational thermal energy
    E(trans)- is the translational thermal energy

Summary of contributions to the inner energy U:
Electronic energy                ...    -96.27184019 Eh
Zero point energy                ...      0.20308984 Eh     127.44 kcal/mol
Thermal vibrational correction   ...      0.00911658 Eh       5.72 kcal/mol
Thermal rotational correction    ...      0.00141627 Eh       0.89 kcal/mol
Thermal translational correction ...      0.00141627 Eh       0.89 kcal/mol
-----------------------------------------------------------------------
Total thermal energy                    -96.05680122 Eh

Summary of corrections to the electronic energy:
(perhaps to be used in another calculation)
Total thermal correction                  0.01194913 Eh       7.50 kcal/mol
Non-thermal (ZPE) correction              0.20308984 Eh     127.44 kcal/mol
-----------------------------------------------------------------------
Total correction                          0.21503897 Eh     134.94 kcal/mol

--------
ENTHALPY
--------

The enthalpy is H = U + kB*T
                kB is Boltzmann's constant
Total thermal energy              ...    -96.05680122 Eh
Thermal Enthalpy correction       ...      0.00094421 Eh       0.59 kcal/mol
-----------------------------------------------------------------------
Total Enthalpy                    ...    -96.05585701 Eh

Note: Only C1 symmetry has been detected, increase convergence thresholds
      if your molecule has a higher symmetry. Symmetry factor of 1.0 is
      used for the rotational entropy correction.

Note: Rotational entropy computed according to Herzberg
Infrared and Raman Spectra, Chapter V,1, Van Nostrand Reinhold, 1945
Point Group:  C1, Symmetry Number:   1
Rotational constants in cm-1:     0.058856     0.016852     0.013219

Vibrational entropy computed according to the QRRHO of S. Grimme
Chem.Eur.J. 2012 18 9955 using a reference frequency of 100.0 cm-1

-------
ENTROPY
-------

The entropy contributions are T*S = T*(S(el)+S(vib)+S(rot)+S(trans))
     S(el)   - electronic entropy
     S(vib)  - vibrational entropy
     S(rot)  - rotational entropy
     S(trans)- translational entropy
The entropies will be listed as multiplied by the temperature to get
units of energy

Electronic entropy                ...      0.00000000 Eh      0.00 kcal/mol
Vibrational entropy               ...      0.01566104 Eh      9.83 kcal/mol
Rotational entropy                ...      0.01481805 Eh      9.30 kcal/mol
Translational entropy             ...      0.01957363 Eh     12.28 kcal/mol
-----------------------------------------------------------------------
Final entropy term                ...      0.05005271 Eh     31.41 kcal/mol

                             ****ORCA TERMINATED NORMALLY****
TOTAL RUN TIME: 0 days 0 hours 23 minutes 18 seconds 880 msec
