                         Program Version 6.0.1  -  RELEASE   -
|  1> ! wB97X-3c OPT FREQ TightSCF
|  2> %pal
|  3>   nprocs 40
|  4> end
|  5> * xyz 0 1
|  6> C      2.463945    -0.982109     0.594007
|  7> C      2.534391    -0.184756    -0.685095
|  8> C      1.431546     0.106878    -1.411765
|  9> C      0.025522    -0.257341    -1.004798
| 10> C     -0.579861     0.827781    -0.106725
| 11> C     -1.979523     0.453483     0.321088
| 12> C     -2.143191    -0.474676     1.283153
| 13> C     -3.454814    -0.917011     1.784870
| 14> O     -3.514177    -1.793534     2.686073
| 15> C     -3.155530     1.134197    -0.332466
| 16> C      3.891431     0.249869    -1.175072
| 17> H      3.474564    -1.104802     1.038125
| 18> H      2.057013    -1.994508     0.390054
| 19> H      1.824480    -0.466125     1.338594
| 20> H      1.538874     0.656479    -2.343282
| 21> H      0.001027    -1.248588    -0.504973
| 22> H     -0.592252    -0.342004    -1.925256
| 23> H     -0.589108     1.790477    -0.662823
| 24> H      0.050894     0.987707     0.794030
| 25> H     -1.265657    -0.932717     1.726161
| 26> H     -4.376935    -0.505861     1.397511
| 27> H     -3.805404     0.378412    -0.821919
| 28> H     -3.740794     1.692386     0.428428
| 29> H     -2.828262     1.853430    -1.111941
| 30> H      3.826589     0.889166    -2.081624
| 31> H      4.500251    -0.645983    -1.418298
| 32> H      4.404980     0.829749    -0.379662
| 33> *
| 34>
| 35>                          ****END OF INPUT****
 Total Charge           Charge          ....    0
 Multiplicity           Mult            ....    1
 Number of Electrons    NEL             ....   62
Dispersion correction           -0.028349285
FINAL SINGLE POINT ENERGY       -82.628991504883
Dispersion correction             ... done (  0.1 sec)
Dispersion correction           -0.028494125
FINAL SINGLE POINT ENERGY       -82.638835527462
Dispersion correction             ... done (  0.1 sec)
Dispersion correction           -0.028468150
FINAL SINGLE POINT ENERGY       -82.640410131960
Dispersion correction             ... done (  0.1 sec)
FINAL SINGLE POINT ENERGY       -82.640483907115
FINAL SINGLE POINT ENERGY       -82.642152106086
FINAL SINGLE POINT ENERGY       -82.642655031266
FINAL SINGLE POINT ENERGY       -82.642919558089
FINAL SINGLE POINT ENERGY       -82.642979465029
FINAL SINGLE POINT ENERGY       -82.643069002492
FINAL SINGLE POINT ENERGY       -82.643149617767
FINAL SINGLE POINT ENERGY       -82.644676951336
FINAL SINGLE POINT ENERGY       -82.644730490221
FINAL SINGLE POINT ENERGY       -82.644921763708
FINAL SINGLE POINT ENERGY       -82.645082945842
FINAL SINGLE POINT ENERGY       -82.645167874686
FINAL SINGLE POINT ENERGY       -82.645189037136
FINAL SINGLE POINT ENERGY       -82.645200313614
Dispersion correction             ... done (  0.1 sec)
Dispersion correction           -0.028078610
FINAL SINGLE POINT ENERGY       -82.645202348329
Dispersion correction             ... done (  0.1 sec)
Dispersion correction           -0.028080493
FINAL SINGLE POINT ENERGY       -82.645203527126
Dispersion correction             ... done (  0.1 sec)
                    ***********************HURRAY********************

CARTESIAN COORDINATES (ANGSTROEM)
---------------------------------
  C      2.683461   -1.328336    0.197741
  C      2.554762   -0.193313   -0.769204
  C      1.400654    0.298581   -1.210030
  C      0.021028   -0.146010   -0.844194
  C     -0.646556    0.823894    0.133453
  C     -2.061851    0.438224    0.446691
  C     -2.333178   -0.214811    1.580927
  C     -3.648198   -0.681968    2.010667
  O     -3.826696   -1.277778    3.045657
  C     -3.068845    0.826892   -0.587342
  C      3.859958    0.378435   -1.230074
  H      3.271659   -1.018427    1.062785
  H      3.218201   -2.160894   -0.262342
  H      1.729221   -1.698713    0.559009
  H      1.445986    1.138048   -1.898126
  H      0.024581   -1.141711   -0.404827
  H     -0.577460   -0.217844   -1.754545
  H     -0.629124    1.829669   -0.293241
  H     -0.057967    0.857260    1.049576
  H     -1.532634   -0.437622    2.276770
  H     -4.504764   -0.471769    1.351771
  H     -4.061054    0.427133   -0.412077
  H     -3.142051    1.914304   -0.627137
  H     -2.742429    0.497884   -1.573101
  H      3.717652    1.196395   -1.932816
  H      4.466101   -0.387953   -1.715838
  H      4.439542    0.750429   -0.383757

 Multiplicity           Mult            ....    1
 Number of Electrons    NEL             ....   62
 Basis Dimension        Dim             ....  223

ORBITAL ENERGIES
----------------

  NO   OCC          E(Eh)            E(eV)
   0   2.0000      -1.165235       -31.7077
   1   2.0000      -0.992329       -27.0026
   2   2.0000      -0.963706       -26.2238
   3   2.0000      -0.908799       -24.7297
   4   2.0000      -0.859934       -23.4000
   5   2.0000      -0.834509       -22.7082
   6   2.0000      -0.830441       -22.5974
   7   2.0000      -0.765077       -20.8188
   8   2.0000      -0.719193       -19.5702
   9   2.0000      -0.670387       -18.2422
  10   2.0000      -0.647980       -17.6324
  11   2.0000      -0.620833       -16.8937
  12   2.0000      -0.592282       -16.1168
  13   2.0000      -0.583948       -15.8900
  14   2.0000      -0.567338       -15.4380
  15   2.0000      -0.555813       -15.1245
  16   2.0000      -0.546879       -14.8813
  17   2.0000      -0.541418       -14.7327
  18   2.0000      -0.523566       -14.2470
  19   2.0000      -0.508292       -13.8313
  20   2.0000      -0.503058       -13.6889
  21   2.0000      -0.500552       -13.6207
  22   2.0000      -0.499886       -13.6026
  23   2.0000      -0.488963       -13.3054
  24   2.0000      -0.480591       -13.0775
  25   2.0000      -0.474554       -12.9133
  26   2.0000      -0.450584       -12.2610
  27   2.0000      -0.437122       -11.8947
  28   2.0000      -0.369363       -10.0509
  29   2.0000      -0.361205        -9.8289
  30   2.0000      -0.339460        -9.2372
  31   0.0000       0.022565         0.6140
  32   0.0000       0.076877         2.0919
  33   0.0000       0.084805         2.3076
  34   0.0000       0.091929         2.5015
  35   0.0000       0.097644         2.6570

MULLIKEN ATOMIC CHARGES
-----------------------
   0 C :   -0.049873
   1 C :   -0.069181
   2 C :   -0.029303
   3 C :   -0.067141
   4 C :   -0.028963
   5 C :   -0.076068
   6 C :    0.012941
   7 C :    0.188350
   8 O :   -0.315740
   9 C :   -0.039319
  10 C :   -0.049188
  11 H :    0.039644
  12 H :    0.043419
  13 H :    0.019736
  14 H :    0.009506
  15 H :    0.037388
  16 H :    0.041100
  17 H :    0.038791
  18 H :    0.041550
  19 H :    0.025321
  20 H :   -0.002736
  21 H :    0.034360
  22 H :    0.055895
  23 H :    0.039438
  24 H :    0.026243
  25 H :    0.036943
  26 H :    0.036889
Sum of atomic charges:   -0.0000000

LOEWDIN ATOMIC CHARGES
----------------------
   0 C :   -0.104013
   1 C :   -0.051046
   2 C :   -0.059099
   3 C :   -0.080886
   4 C :   -0.068609
   5 C :   -0.001797
   6 C :   -0.065681
   7 C :   -0.002540
   8 O :   -0.135647
   9 C :   -0.095397
  10 C :   -0.105984
  11 H :    0.051785
  12 H :    0.052152
  13 H :    0.043985
  14 H :    0.037620
  15 H :    0.045121
  16 H :    0.046073
  17 H :    0.052189
  18 H :    0.055243
  19 H :    0.049503
  20 H :    0.031368
  21 H :    0.044948
  22 H :    0.058851
  23 H :    0.054109
  24 H :    0.049409
  25 H :    0.049534
  26 H :    0.048810

  Mayer bond orders larger than 0.100000
B(  0-C ,  1-C ) :   1.0362 B(  0-C , 11-H ) :   0.9762 B(  0-C , 12-H ) :   0.9763
B(  0-C , 13-H ) :   0.9910 B(  1-C ,  2-C ) :   1.8896 B(  1-C , 10-C ) :   1.0319
B(  2-C ,  3-C ) :   1.0277 B(  2-C , 14-H ) :   0.9936 B(  3-C ,  4-C ) :   0.9481
B(  3-C , 15-H ) :   0.9943 B(  3-C , 16-H ) :   0.9884 B(  4-C ,  5-C ) :   1.0327
B(  4-C , 17-H ) :   0.9853 B(  4-C , 18-H ) :   0.9927 B(  5-C ,  6-C ) :   1.7987
B(  5-C ,  9-C ) :   1.0396 B(  6-C ,  7-C ) :   1.1174 B(  6-C , 19-H ) :   0.9820
B(  7-C ,  8-O ) :   1.8491 B(  7-C , 20-H ) :   1.0104 B(  9-C , 21-H ) :   0.9873
B(  9-C , 22-H ) :   0.9687 B(  9-C , 23-H ) :   0.9746 B( 10-C , 24-H ) :   0.9921
B( 10-C , 25-H ) :   0.9794 B( 10-C , 26-H ) :   0.9791

Dispersion correction           -0.028082092
FINAL SINGLE POINT ENERGY       -82.645204049995

DIPOLE MOMENT
-------------

Method             : SCF
Type of density    : Electron Density
Multiplicity       :   1
Irrep              :   0
Energy             :   -82.6171219580008511 Eh
Relativity type    :
Basis              : AO
                                X                 Y                 Z
Electronic contribution:    -10.663265996      -1.336809192       6.622516367
Nuclear contribution   :     11.459467526       2.104532723      -8.034050785
                        -----------------------------------------
Total Dipole Moment    :      0.796201530       0.767723531      -1.411534418
                        -----------------------------------------
Magnitude (a.u.)       :      1.793255618
Magnitude (Debye)      :      4.558093542

VIBRATIONAL FREQUENCIES
-----------------------

Scaling factor for frequencies =  1.000000000  (already applied!)

     0:       0.00 cm**-1
     1:       0.00 cm**-1
     2:       0.00 cm**-1
     3:       0.00 cm**-1
     4:       0.00 cm**-1
     5:       0.00 cm**-1
     6:      17.88 cm**-1
     7:      31.81 cm**-1
     8:      50.30 cm**-1
     9:      87.56 cm**-1
    10:     103.98 cm**-1
    11:     130.65 cm**-1
    12:     139.06 cm**-1
    13:     167.53 cm**-1
    14:     200.37 cm**-1
    15:     235.37 cm**-1
    16:     254.47 cm**-1
    17:     313.18 cm**-1
    18:     350.36 cm**-1
    19:     378.46 cm**-1
    20:     407.72 cm**-1
    21:     469.22 cm**-1
    22:     500.81 cm**-1
    23:     528.22 cm**-1
    24:     553.43 cm**-1
    25:     635.93 cm**-1
    26:     777.95 cm**-1
    27:     836.68 cm**-1
    28:     864.42 cm**-1
    29:     893.19 cm**-1
    30:     910.35 cm**-1
    31:     985.86 cm**-1
    32:     996.91 cm**-1
    33:    1031.75 cm**-1
    34:    1032.31 cm**-1
    35:    1042.60 cm**-1
    36:    1063.31 cm**-1
    37:    1088.91 cm**-1
    38:    1094.69 cm**-1
    39:    1129.28 cm**-1
    40:    1155.61 cm**-1
    41:    1172.71 cm**-1
    42:    1203.37 cm**-1
    43:    1248.93 cm**-1
    44:    1283.98 cm**-1
    45:    1315.34 cm**-1
    46:    1335.57 cm**-1
    47:    1383.28 cm**-1
    48:    1399.07 cm**-1
    49:    1421.20 cm**-1
    50:    1451.07 cm**-1
    51:    1457.65 cm**-1
    52:    1460.26 cm**-1
    53:    1466.80 cm**-1
    54:    1502.20 cm**-1
    55:    1506.61 cm**-1
    56:    1509.56 cm**-1
    57:    1520.05 cm**-1
    58:    1522.83 cm**-1
    59:    1524.92 cm**-1
    60:    1528.94 cm**-1
    61:    1539.94 cm**-1
    62:    1762.31 cm**-1
    63:    1807.09 cm**-1
    64:    1839.48 cm**-1
    65:    3047.48 cm**-1
    66:    3095.97 cm**-1
    67:    3101.84 cm**-1
    68:    3102.97 cm**-1
    69:    3112.11 cm**-1
    70:    3117.09 cm**-1
    71:    3166.66 cm**-1
    72:    3172.40 cm**-1
    73:    3173.78 cm**-1
    74:    3183.08 cm**-1
    75:    3191.90 cm**-1
    76:    3199.50 cm**-1
    77:    3208.89 cm**-1
    78:    3228.89 cm**-1
    79:    3236.96 cm**-1
    80:    3246.06 cm**-1

IR SPECTRUM
-----------

 Mode   freq       eps      Int      T**2         TX        TY        TZ
       cm**-1   L/(mol*cm) km/mol    a.u.
----------------------------------------------------------------------------
  6:     17.88   0.000272    1.37  0.004744  ( 0.011504 -0.058084 -0.035182)
  7:     31.81   0.000193    0.98  0.001894  ( 0.036926  0.015849  0.016720)
  8:     50.30   0.000241    1.22  0.001495  (-0.031849  0.021915 -0.000931)
  9:     87.56   0.000099    0.50  0.000352  ( 0.012740 -0.012295 -0.006189)
 10:    103.98   0.000425    2.15  0.001277  (-0.007758  0.028212  0.020514)
 11:    130.65   0.000054    0.27  0.000129  (-0.005354 -0.006319 -0.007803)
 12:    139.06   0.001269    6.41  0.002848  ( 0.000170  0.044980  0.028725)
 13:    167.53   0.000453    2.29  0.000844  ( 0.016659 -0.022114 -0.008827)
 14:    200.37   0.000157    0.79  0.000245  ( 0.000743 -0.009790 -0.012179)
 15:    235.37   0.001272    6.43  0.001687  (-0.040950  0.000344 -0.003169)
 16:    254.47   0.000188    0.95  0.000230  ( 0.008110  0.012685  0.001852)
 17:    313.18   0.000018    0.09  0.000018  (-0.002176 -0.002229 -0.002838)
 18:    350.36   0.000553    2.79  0.000492  (-0.007765  0.007057  0.019552)
 19:    378.46   0.000613    3.10  0.000506  (-0.018305 -0.005073  0.012033)
 20:    407.72   0.000470    2.38  0.000360  (-0.014988  0.006978  0.009302)
 21:    469.22   0.001382    6.99  0.000919  (-0.012253 -0.025316 -0.011331)
 22:    500.81   0.001976    9.99  0.001231  (-0.027670 -0.007616  0.020195)
 23:    528.22   0.000412    2.08  0.000243  (-0.004138 -0.013478 -0.006679)
 24:    553.43   0.001099    5.55  0.000620  ( 0.021275 -0.012689 -0.002458)
 25:    635.93   0.001324    6.69  0.000650  ( 0.010234 -0.022241 -0.007082)
 26:    777.95   0.000465    2.35  0.000187  (-0.001057 -0.002440 -0.013402)
 27:    836.68   0.000355    1.80  0.000133  ( 0.002473 -0.008859 -0.006924)
 28:    864.42   0.003537   17.87  0.001277  (-0.011232  0.018471  0.028451)
 29:    893.19   0.000508    2.57  0.000177  ( 0.006672 -0.011528 -0.000015)
 30:    910.35   0.002873   14.52  0.000985  ( 0.011319  0.028513  0.006607)
 31:    985.86   0.000082    0.41  0.000026  (-0.004853 -0.000625  0.001417)
 32:    996.91   0.000502    2.54  0.000157  (-0.004579 -0.006882  0.009425)
 33:   1031.75   0.000720    3.64  0.000218  ( 0.000134 -0.008339 -0.012174)
 34:   1032.31   0.001537    7.77  0.000465  ( 0.008757 -0.010388 -0.016731)
 35:   1042.60   0.001258    6.36  0.000377  ( 0.010257  0.005555 -0.015507)
 36:   1063.31   0.000601    3.03  0.000176  (-0.009432 -0.000001  0.009343)
 37:   1088.91   0.002761   13.95  0.000791  ( 0.023434  0.004908 -0.014763)
 38:   1094.69   0.000658    3.33  0.000188  ( 0.013656  0.000855  0.000644)
 39:   1129.28   0.000097    0.49  0.000027  (-0.001732  0.003396  0.003496)
 40:   1155.61   0.001876    9.48  0.000507  ( 0.005866  0.015549 -0.015183)
 41:   1172.71   0.010618   53.66  0.002825  (-0.047977 -0.012444  0.019203)
 42:   1203.37   0.000369    1.87  0.000096  ( 0.006090  0.004030 -0.006514)
 43:   1248.93   0.009278   46.89  0.002318  (-0.042099 -0.012687  0.019621)
 44:   1283.98   0.000521    2.63  0.000127  ( 0.010058  0.004147 -0.002884)
 45:   1315.34   0.000674    3.40  0.000160  (-0.012074  0.000573  0.003702)
 46:   1335.57   0.000198    1.00  0.000046  (-0.004562  0.001943 -0.004654)
 47:   1383.28   0.000318    1.61  0.000072  (-0.003353 -0.002445  0.007384)
 48:   1399.07   0.001932    9.76  0.000431  (-0.019277  0.004828  0.006007)
 49:   1421.20   0.000109    0.55  0.000024  ( 0.000059 -0.004188 -0.002534)
 50:   1451.07   0.000780    3.94  0.000168  (-0.006317 -0.009762  0.005710)
 51:   1457.65   0.005307   26.82  0.001136  ( 0.028405 -0.011427  0.014097)
 52:   1460.26   0.001953    9.87  0.000417  (-0.001394  0.016671 -0.011722)
 53:   1466.80   0.001960    9.91  0.000417  ( 0.016080 -0.004606  0.011717)
 54:   1502.20   0.000158    0.80  0.000033  ( 0.002992 -0.001926 -0.004483)
 55:   1506.61   0.001958    9.89  0.000405  (-0.016718 -0.002252  0.010995)
 56:   1509.56   0.000332    1.68  0.000069  (-0.002499  0.006183  0.004924)
 57:   1520.05   0.000991    5.01  0.000203  ( 0.013356  0.004855 -0.001240)
 58:   1522.83   0.005429   27.44  0.001113  ( 0.006540  0.023860  0.022370)
 59:   1524.92   0.003674   18.57  0.000752  (-0.005436 -0.012352  0.023868)
 60:   1528.94   0.001706    8.62  0.000348  ( 0.010290 -0.013424 -0.007883)
 61:   1539.94   0.002868   14.50  0.000581  ( 0.017160  0.016164  0.005054)
 62:   1762.31   0.012647   63.91  0.002240  ( 0.028378  0.017339 -0.033669)
 63:   1807.09   0.001143    5.78  0.000197  (-0.012596  0.005460 -0.002997)
 64:   1839.48   0.093815  474.10  0.015916  ( 0.056537  0.056415 -0.097654)
 65:   3047.48   0.012474   63.04  0.001277  (-0.032540  0.004019 -0.014226)
 66:   3095.97   0.006205   31.36  0.000625  ( 0.022244  0.008022 -0.008140)
 67:   3101.84   0.007129   36.03  0.000717  (-0.017915  0.016743 -0.010767)
 68:   3102.97   0.002714   13.72  0.000273  ( 0.013826  0.008418  0.003306)
 69:   3112.11   0.004109   20.77  0.000412  ( 0.008631  0.017715  0.004874)
 70:   3117.09   0.004623   23.36  0.000463  (-0.012036  0.002951 -0.017585)
 71:   3166.66   0.000844    4.26  0.000083  (-0.004586 -0.002742 -0.007389)
 72:   3172.40   0.000003    0.02  0.000000  ( 0.000138  0.000166 -0.000526)
 73:   3173.78   0.003627   18.33  0.000357  (-0.000244  0.012793  0.013890)
 74:   3183.08   0.001675    8.47  0.000164  (-0.008292  0.006796 -0.007021)
 75:   3191.90   0.000826    4.18  0.000081  ( 0.001050  0.006077  0.006538)
 76:   3199.50   0.003074   15.54  0.000300  (-0.003144 -0.011684  0.012388)
 77:   3208.89   0.004223   21.34  0.000411  ( 0.003768 -0.014848  0.013268)
 78:   3228.89   0.002883   14.57  0.000279  ( 0.013544  0.007089 -0.006703)
 79:   3236.96   0.000523    2.64  0.000050  ( 0.005682 -0.000362  0.004244)
 80:   3246.06   0.001825    9.22  0.000175  ( 0.013101  0.001937  0.000158)

--------------------------
THERMOCHEMISTRY AT 298.15K
--------------------------

Temperature         ...   298.15 K
Pressure            ...     1.00 atm
Total Mass          ...   152.24 AMU
Quasi RRHO          ...     True
Cut-Off Frequency   ...     1.00 cm^-1

Throughout the following assumptions are being made:
  (1) The electronic state is orbitally nondegenerate
  (2) There are no thermally accessible electronically excited states
  (3) Hindered rotations indicated by low frequency modes are not
      treated as such but are treated as vibrations and this may
      cause some error
  (4) All equations used are the standard statistical mechanics
      equations for an ideal gas
  (5) All vibrations are strictly harmonic

freq.      17.88  E(vib)   ...       0.57
freq.      31.81  E(vib)   ...       0.55
freq.      50.30  E(vib)   ...       0.52
freq.      87.56  E(vib)   ...       0.48
freq.     103.98  E(vib)   ...       0.46
freq.     130.65  E(vib)   ...       0.43
freq.     139.06  E(vib)   ...       0.42
freq.     167.53  E(vib)   ...       0.38
freq.     200.37  E(vib)   ...       0.35
freq.     235.37  E(vib)   ...       0.32
freq.     254.47  E(vib)   ...       0.30
freq.     313.18  E(vib)   ...       0.25
freq.     350.36  E(vib)   ...       0.23
freq.     378.46  E(vib)   ...       0.21
freq.     407.72  E(vib)   ...       0.19
freq.     469.22  E(vib)   ...       0.16
freq.     500.81  E(vib)   ...       0.14
freq.     528.22  E(vib)   ...       0.13
freq.     553.43  E(vib)   ...       0.12
freq.     635.93  E(vib)   ...       0.09
freq.     777.95  E(vib)   ...       0.05
freq.     836.68  E(vib)   ...       0.04
freq.     864.42  E(vib)   ...       0.04
freq.     893.19  E(vib)   ...       0.03
freq.     910.35  E(vib)   ...       0.03
freq.     985.86  E(vib)   ...       0.02
freq.     996.91  E(vib)   ...       0.02
freq.    1031.75  E(vib)   ...       0.02
freq.    1032.31  E(vib)   ...       0.02
freq.    1042.60  E(vib)   ...       0.02
freq.    1063.31  E(vib)   ...       0.02
freq.    1088.91  E(vib)   ...       0.02
freq.    1094.69  E(vib)   ...       0.02
freq.    1129.28  E(vib)   ...       0.01
freq.    1155.61  E(vib)   ...       0.01
freq.    1172.71  E(vib)   ...       0.01
freq.    1203.37  E(vib)   ...       0.01
freq.    1248.93  E(vib)   ...       0.01
freq.    1283.98  E(vib)   ...       0.01
freq.    1315.34  E(vib)   ...       0.01
freq.    1335.57  E(vib)   ...       0.01
freq.    1383.28  E(vib)   ...       0.00
freq.    1399.07  E(vib)   ...       0.00
freq.    1421.20  E(vib)   ...       0.00
freq.    1451.07  E(vib)   ...       0.00
freq.    1457.65  E(vib)   ...       0.00
freq.    1460.26  E(vib)   ...       0.00
freq.    1466.80  E(vib)   ...       0.00
freq.    1502.20  E(vib)   ...       0.00
freq.    1506.61  E(vib)   ...       0.00
freq.    1509.56  E(vib)   ...       0.00
freq.    1520.05  E(vib)   ...       0.00
freq.    1522.83  E(vib)   ...       0.00
freq.    1524.92  E(vib)   ...       0.00
freq.    1528.94  E(vib)   ...       0.00
freq.    1539.94  E(vib)   ...       0.00
freq.    1762.31  E(vib)   ...       0.00
freq.    1807.09  E(vib)   ...       0.00
freq.    1839.48  E(vib)   ...       0.00
freq.    3047.48  E(vib)   ...       0.00
freq.    3095.97  E(vib)   ...       0.00
freq.    3101.84  E(vib)   ...       0.00
freq.    3102.97  E(vib)   ...       0.00
freq.    3112.11  E(vib)   ...       0.00
freq.    3117.09  E(vib)   ...       0.00
freq.    3166.66  E(vib)   ...       0.00
freq.    3172.40  E(vib)   ...       0.00
freq.    3173.78  E(vib)   ...       0.00
freq.    3183.08  E(vib)   ...       0.00
freq.    3191.90  E(vib)   ...       0.00
freq.    3199.50  E(vib)   ...       0.00
freq.    3208.89  E(vib)   ...       0.00
freq.    3228.89  E(vib)   ...       0.00
freq.    3236.96  E(vib)   ...       0.00
freq.    3246.06  E(vib)   ...       0.00

------------
INNER ENERGY
------------

The inner energy is: U= E(el) + E(ZPE) + E(vib) + E(rot) + E(trans)
    E(el)   - is the total energy from the electronic structure calculation
              = E(kin-el) + E(nuc-el) + E(el-el) + E(nuc-nuc)
    E(ZPE)  - the the zero temperature vibrational energy from the frequency calculation
    E(vib)  - the the finite temperature correction to E(ZPE) due to population
              of excited vibrational states
    E(rot)  - is the rotational thermal energy
    E(trans)- is the translational thermal energy

Summary of contributions to the inner energy U:
Electronic energy                ...    -82.64520405 Eh
Zero point energy                ...      0.24196149 Eh     151.83 kcal/mol
Thermal vibrational correction   ...      0.01078595 Eh       6.77 kcal/mol
Thermal rotational correction    ...      0.00141627 Eh       0.89 kcal/mol
Thermal translational correction ...      0.00141627 Eh       0.89 kcal/mol
-----------------------------------------------------------------------
Total thermal energy                    -82.38962407 Eh

Summary of corrections to the electronic energy:
(perhaps to be used in another calculation)
Total thermal correction                  0.01361849 Eh       8.55 kcal/mol
Non-thermal (ZPE) correction              0.24196149 Eh     151.83 kcal/mol
-----------------------------------------------------------------------
Total correction                          0.25557998 Eh     160.38 kcal/mol

--------
ENTHALPY
--------

The enthalpy is H = U + kB*T
                kB is Boltzmann's constant
Total thermal energy              ...    -82.38962407 Eh
Thermal Enthalpy correction       ...      0.00094421 Eh       0.59 kcal/mol
-----------------------------------------------------------------------
Total Enthalpy                    ...    -82.38867986 Eh

Note: Only C1 symmetry has been detected, increase convergence thresholds
      if your molecule has a higher symmetry. Symmetry factor of 1.0 is
      used for the rotational entropy correction.

Note: Rotational entropy computed according to Herzberg
Infrared and Raman Spectra, Chapter V,1, Van Nostrand Reinhold, 1945
Point Group:  C1, Symmetry Number:   1
Rotational constants in cm-1:     0.073981     0.012983     0.011464

Vibrational entropy computed according to the QRRHO of S. Grimme
Chem.Eur.J. 2012 18 9955 using a reference frequency of 100.0 cm-1

-------
ENTROPY
-------

The entropy contributions are T*S = T*(S(el)+S(vib)+S(rot)+S(trans))
     S(el)   - electronic entropy
     S(vib)  - vibrational entropy
     S(rot)  - rotational entropy
     S(trans)- translational entropy

                             ****ORCA TERMINATED NORMALLY****
TOTAL RUN TIME: 0 days 0 hours 26 minutes 21 seconds 744 msec
