                         Program Version 6.0.1  -  RELEASE   -
|  1> ! wB97X-3c OPT FREQ TightSCF
|  2> %pal
|  3>   nprocs 40
|  4> end
|  5> * xyz 0 1
|  6> C      2.757453    -0.166959    -0.487174
|  7> C      2.141686     0.726932     0.583851
|  8> O      0.892401     1.259058     0.142610
|  9> C     -0.319432     0.551732     0.075327
| 10> C     -0.462396    -0.767351     0.552902
| 11> C     -1.696264    -1.419564     0.459769
| 12> C     -2.794609    -0.766349    -0.104526
| 13> C     -2.661727     0.541726    -0.575901
| 14> C     -1.430015     1.197111    -0.484815
| 15> H      2.105493    -1.040296    -0.693570
| 16> H      3.746630    -0.534721    -0.142185
| 17> H      2.896068     0.409772    -1.426008
| 18> H      2.834034     1.574481     0.771298
| 19> H      2.023557     0.178304     1.542104
| 20> H      0.366219    -1.297831     0.999205
| 21> H     -1.801152    -2.432393     0.826949
| 22> H     -3.748395    -1.273088    -0.175166
| 23> H     -3.513040     1.048408    -1.011847
| 24> H     -1.336510     2.211028    -0.852822
| 25> *
| 26>
| 27>                          ****END OF INPUT****
 Total Charge           Charge          ....    0
 Multiplicity           Mult            ....    1
 Number of Electrons    NEL             ....   48
Dispersion correction           -0.021281058
FINAL SINGLE POINT ENERGY       -67.633534870974
Dispersion correction             ... done (  0.1 sec)
Dispersion correction           -0.021799671
FINAL SINGLE POINT ENERGY       -67.641623524788
Dispersion correction             ... done (  0.1 sec)
Dispersion correction           -0.021824882
FINAL SINGLE POINT ENERGY       -67.642035356491
Dispersion correction             ... done (  0.1 sec)
FINAL SINGLE POINT ENERGY       -67.642120284998
Dispersion correction             ... done (  0.1 sec)
Dispersion correction           -0.021802735
FINAL SINGLE POINT ENERGY       -67.642137224178
Dispersion correction             ... done (  0.1 sec)
Dispersion correction           -0.021812435
FINAL SINGLE POINT ENERGY       -67.642140848292
Dispersion correction             ... done (  0.1 sec)
                    ***********************HURRAY********************

CARTESIAN COORDINATES (ANGSTROEM)
---------------------------------
  C      2.698494   -0.180790   -0.482541
  C      2.053587    0.697437    0.562008
  O      0.850777    1.284456    0.106950
  C     -0.286810    0.552129    0.066065
  C     -0.410628   -0.745856    0.539584
  C     -1.637783   -1.388570    0.460712
  C     -2.738834   -0.759258   -0.083653
  C     -2.605357    0.538587   -0.556641
  C     -1.393565    1.190169   -0.484945
  H      2.064951   -1.023164   -0.751922
  H      3.643653   -0.570271   -0.106106
  H      2.898490    0.394783   -1.384541
  H      2.699611    1.541124    0.796025
  H      1.878993    0.158054    1.494844
  H      0.430369   -1.268694    0.966938
  H     -1.723007   -2.400489    0.832828
  H     -3.689363   -1.269753   -0.141427
  H     -3.456526    1.048778   -0.986563
  H     -1.277051    2.201329   -0.847612

 Multiplicity           Mult            ....    1
 Number of Electrons    NEL             ....   48
 Basis Dimension        Dim             ....  167

ORBITAL ENERGIES
----------------

  NO   OCC          E(Eh)            E(eV)
   0   2.0000      -1.196344       -32.5542
   1   2.0000      -0.999672       -27.2025
   2   2.0000      -0.919630       -25.0244
   3   2.0000      -0.888486       -24.1769
   4   2.0000      -0.867840       -23.6151
   5   2.0000      -0.782063       -21.2810
   6   2.0000      -0.740861       -20.1599
   7   2.0000      -0.709755       -19.3134
   8   2.0000      -0.660224       -17.9656
   9   2.0000      -0.611470       -16.6390
  10   2.0000      -0.605088       -16.4653
  11   2.0000      -0.574787       -15.6407
  12   2.0000      -0.568903       -15.4806
  13   2.0000      -0.545061       -14.8319
  14   2.0000      -0.532243       -14.4831
  15   2.0000      -0.512474       -13.9451
  16   2.0000      -0.496741       -13.5170
  17   2.0000      -0.489266       -13.3136
  18   2.0000      -0.470244       -12.7960
  19   2.0000      -0.456308       -12.4168
  20   2.0000      -0.433493       -11.7959
  21   2.0000      -0.427499       -11.6328
  22   2.0000      -0.351207        -9.5568
  23   2.0000      -0.315488        -8.5849
  24   0.0000       0.068803         1.8722
  25   0.0000       0.081604         2.2206
  26   0.0000       0.089048         2.4231
  27   0.0000       0.098172         2.6714
  28   0.0000       0.104959         2.8561

MULLIKEN ATOMIC CHARGES
-----------------------
   0 C :   -0.060531
   1 C :    0.090156
   2 O :   -0.292157
   3 C :    0.080578
   4 C :   -0.060351
   5 C :   -0.008296
   6 C :   -0.025202
   7 C :    0.000478
   8 C :    0.000417
   9 H :    0.041091
  10 H :    0.038660
  11 H :    0.044138
  12 H :    0.046462
  13 H :    0.027146
  14 H :    0.012690
  15 H :    0.014613
  16 H :    0.014760
  17 H :    0.016519
  18 H :    0.018829
Sum of atomic charges:   -0.0000000

LOEWDIN ATOMIC CHARGES
----------------------
   0 C :   -0.106278
   1 C :   -0.050207
   2 O :   -0.027338
   3 C :   -0.034548
   4 C :   -0.062616
   5 C :   -0.042766
   6 C :   -0.066700
   7 C :   -0.042218
   8 C :   -0.038285
   9 H :    0.044841
  10 H :    0.050579
  11 H :    0.050279
  12 H :    0.058562
  13 H :    0.041680
  14 H :    0.037952
  15 H :    0.046981
  16 H :    0.042518
  17 H :    0.047846
  18 H :    0.049718

  Mayer bond orders larger than 0.100000
B(  0-C ,  1-C ) :   0.9960 B(  0-C ,  9-H ) :   0.9908 B(  0-C , 10-H ) :   0.9885
B(  0-C , 11-H ) :   0.9890 B(  1-C ,  2-O ) :   0.9153 B(  1-C , 12-H ) :   1.0089
B(  1-C , 13-H ) :   0.9986 B(  2-O ,  3-C ) :   1.0869 B(  3-C ,  4-C ) :   1.4472
B(  3-C ,  8-C ) :   1.4209 B(  4-C ,  5-C ) :   1.4494 B(  4-C , 14-H ) :   0.9813
B(  5-C ,  6-C ) :   1.4698 B(  5-C , 15-H ) :   0.9900 B(  6-C ,  7-C ) :   1.4221
B(  6-C , 16-H ) :   0.9917 B(  7-C ,  8-C ) :   1.4825 B(  7-C , 17-H ) :   0.9905
B(  8-C , 18-H ) :   0.9818

Dispersion correction           -0.021808493
FINAL SINGLE POINT ENERGY       -67.642142287542

DIPOLE MOMENT
-------------

Method             : SCF
Type of density    : Electron Density
Multiplicity       :   1
Irrep              :   0
Energy             :   -67.6203337942121294 Eh
Relativity type    :
Basis              : AO
                                X                 Y                 Z
Electronic contribution:     -8.893973464       1.568846890       0.366961024
Nuclear contribution   :      9.372836093      -1.919941774      -0.231357207
                        -----------------------------------------
Total Dipole Moment    :      0.478862628      -0.351094884       0.135603817
                        -----------------------------------------
Magnitude (a.u.)       :      0.609069314
Magnitude (Debye)      :      1.548131164

VIBRATIONAL FREQUENCIES
-----------------------

Scaling factor for frequencies =  1.000000000  (already applied!)

     0:       0.00 cm**-1
     1:       0.00 cm**-1
     2:       0.00 cm**-1
     3:       0.00 cm**-1
     4:       0.00 cm**-1
     5:       0.00 cm**-1
     6:      52.99 cm**-1
     7:     120.60 cm**-1
     8:     195.68 cm**-1
     9:     231.45 cm**-1
    10:     300.05 cm**-1
    11:     382.07 cm**-1
    12:     430.28 cm**-1
    13:     494.76 cm**-1
    14:     532.25 cm**-1
    15:     580.04 cm**-1
    16:     639.80 cm**-1
    17:     721.42 cm**-1
    18:     783.81 cm**-1
    19:     803.82 cm**-1
    20:     843.17 cm**-1
    21:     851.58 cm**-1
    22:     920.72 cm**-1
    23:     946.07 cm**-1
    24:    1003.36 cm**-1
    25:    1021.10 cm**-1
    26:    1034.77 cm**-1
    27:    1076.49 cm**-1
    28:    1120.32 cm**-1
    29:    1131.34 cm**-1
    30:    1152.93 cm**-1
    31:    1190.89 cm**-1
    32:    1216.28 cm**-1
    33:    1219.20 cm**-1
    34:    1309.98 cm**-1
    35:    1335.93 cm**-1
    36:    1368.50 cm**-1
    37:    1384.70 cm**-1
    38:    1428.03 cm**-1
    39:    1459.21 cm**-1
    40:    1514.18 cm**-1
    41:    1528.27 cm**-1
    42:    1534.16 cm**-1
    43:    1553.49 cm**-1
    44:    1574.28 cm**-1
    45:    1698.21 cm**-1
    46:    1718.30 cm**-1
    47:    3114.01 cm**-1
    48:    3116.97 cm**-1
    49:    3180.64 cm**-1
    50:    3209.86 cm**-1
    51:    3219.58 cm**-1
    52:    3249.43 cm**-1
    53:    3256.75 cm**-1
    54:    3273.39 cm**-1
    55:    3280.16 cm**-1
    56:    3290.35 cm**-1

IR SPECTRUM
-----------

 Mode   freq       eps      Int      T**2         TX        TY        TZ
       cm**-1   L/(mol*cm) km/mol    a.u.
----------------------------------------------------------------------------
  6:     52.99   0.000366    1.85  0.002155  ( 0.002795 -0.017067 -0.043081)
  7:    120.60   0.000021    0.11  0.000055  (-0.001288 -0.006652 -0.003043)
  8:    195.68   0.000156    0.79  0.000249  ( 0.011256  0.010576 -0.003308)
  9:    231.45   0.000007    0.03  0.000009  (-0.002900  0.000511 -0.000409)
 10:    300.05   0.000220    1.11  0.000229  ( 0.007002  0.012017 -0.005974)
 11:    382.07   0.000876    4.42  0.000715  ( 0.011112 -0.016606 -0.017774)
 12:    430.28   0.000006    0.03  0.000005  ( 0.000484  0.002107 -0.000176)
 13:    494.76   0.000715    3.61  0.000451  ( 0.004729 -0.002139 -0.020594)
 14:    532.25   0.001652    8.35  0.000969  ( 0.004878 -0.014849 -0.026916)
 15:    580.04   0.001288    6.51  0.000693  ( 0.017630  0.018994 -0.004633)
 16:    639.80   0.000127    0.64  0.000062  (-0.006995  0.002500 -0.002592)
 17:    721.42   0.006832   34.53  0.002955  (-0.014468  0.017546  0.049378)
 18:    783.81   0.012657   63.96  0.005039  (-0.017531  0.022873  0.064875)
 19:    803.82   0.003060   15.46  0.001188  (-0.023287 -0.025410  0.000165)
 20:    843.17   0.000102    0.52  0.000038  ( 0.003593  0.002799  0.004138)
 21:    851.58   0.000153    0.77  0.000056  ( 0.000455 -0.005149 -0.005416)
 22:    920.72   0.001596    8.06  0.000541  (-0.004544  0.006990  0.021710)
 23:    946.07   0.001330    6.72  0.000439  ( 0.020873 -0.000147  0.001749)
 24:   1003.36   0.000015    0.07  0.000005  ( 0.000221 -0.001688 -0.001276)
 25:   1021.10   0.000043    0.22  0.000013  ( 0.001238 -0.000746 -0.003305)
 26:   1034.77   0.000129    0.65  0.000039  ( 0.003211  0.005110 -0.001589)
 27:   1076.49   0.000778    3.93  0.000226  (-0.009973 -0.011203 -0.000812)
 28:   1120.32   0.006150   31.08  0.001713  (-0.038202  0.015431  0.003937)
 29:   1131.34   0.001784    9.01  0.000492  ( 0.000972 -0.021587  0.005011)
 30:   1152.93   0.008979   45.37  0.002430  ( 0.042990 -0.009460  0.022195)
 31:   1190.89   0.000418    2.11  0.000109  (-0.006262 -0.007905  0.002778)
 32:   1216.28   0.000940    4.75  0.000241  ( 0.011851 -0.008177  0.005807)
 33:   1219.20   0.003116   15.75  0.000798  (-0.027025 -0.007532 -0.003251)
 34:   1309.98   0.041620  210.33  0.009915  ( 0.096537  0.023527  0.006475)
 35:   1335.93   0.000147    0.74  0.000034  (-0.000255  0.003796 -0.004447)
 36:   1368.50   0.016712   84.46  0.003811  ( 0.059877  0.014925  0.001727)
 37:   1384.70   0.010004   50.55  0.002254  (-0.046856  0.000400 -0.007669)
 38:   1428.03   0.001116    5.64  0.000244  (-0.013649  0.004252  0.006280)
 39:   1459.21   0.005238   26.47  0.001120  ( 0.028425 -0.013124 -0.011833)
 40:   1514.18   0.001643    8.30  0.000339  (-0.003043 -0.017058  0.006198)
 41:   1528.27   0.000255    1.29  0.000052  (-0.005570 -0.004586  0.000304)
 42:   1534.16   0.000374    1.89  0.000076  (-0.006963 -0.000511  0.005235)
 43:   1553.49   0.001248    6.31  0.000251  (-0.001870 -0.004866  0.014952)
 44:   1574.28   0.027399  138.46  0.005431  (-0.068845 -0.025248 -0.007354)
 45:   1698.21   0.004211   21.28  0.000774  ( 0.014098  0.022868 -0.007219)
 46:   1718.30   0.019727   99.69  0.003583  (-0.057299 -0.016024 -0.006530)
 47:   3114.01   0.006939   35.07  0.000695  (-0.004338 -0.006588 -0.025163)
 48:   3116.97   0.003942   19.92  0.000395  (-0.017783  0.004569 -0.007588)
 49:   3180.64   0.002092   10.57  0.000205  (-0.010805 -0.009350  0.001067)
 50:   3209.86   0.002358   11.92  0.000229  ( 0.010076 -0.003160  0.010851)
 51:   3219.58   0.002654   13.41  0.000257  ( 0.011824  0.010648 -0.002021)
 52:   3249.43   0.000305    1.54  0.000029  (-0.004844 -0.002407 -0.000150)
 53:   3256.75   0.001330    6.72  0.000127  ( 0.004400 -0.009224  0.004792)
 54:   3273.39   0.002022   10.22  0.000193  (-0.009922 -0.009649  0.001099)
 55:   3280.16   0.001266    6.40  0.000120  (-0.010428  0.001384 -0.003128)
 56:   3290.35   0.000774    3.91  0.000073  (-0.006151  0.004505 -0.003905)

--------------------------
THERMOCHEMISTRY AT 298.15K
--------------------------

Temperature         ...   298.15 K
Pressure            ...     1.00 atm
Total Mass          ...   122.17 AMU
Quasi RRHO          ...     True
Cut-Off Frequency   ...     1.00 cm^-1

Throughout the following assumptions are being made:
  (1) The electronic state is orbitally nondegenerate
  (2) There are no thermally accessible electronically excited states
  (3) Hindered rotations indicated by low frequency modes are not
      treated as such but are treated as vibrations and this may
      cause some error
  (4) All equations used are the standard statistical mechanics
      equations for an ideal gas
  (5) All vibrations are strictly harmonic

freq.      52.99  E(vib)   ...       0.52
freq.     120.60  E(vib)   ...       0.44
freq.     195.68  E(vib)   ...       0.36
freq.     231.45  E(vib)   ...       0.32
freq.     300.05  E(vib)   ...       0.26
freq.     382.07  E(vib)   ...       0.21
freq.     430.28  E(vib)   ...       0.18
freq.     494.76  E(vib)   ...       0.14
freq.     532.25  E(vib)   ...       0.13
freq.     580.04  E(vib)   ...       0.11
freq.     639.80  E(vib)   ...       0.09
freq.     721.42  E(vib)   ...       0.07
freq.     783.81  E(vib)   ...       0.05
freq.     803.82  E(vib)   ...       0.05
freq.     843.17  E(vib)   ...       0.04
freq.     851.58  E(vib)   ...       0.04
freq.     920.72  E(vib)   ...       0.03
freq.     946.07  E(vib)   ...       0.03
freq.    1003.36  E(vib)   ...       0.02
freq.    1021.10  E(vib)   ...       0.02
freq.    1034.77  E(vib)   ...       0.02
freq.    1076.49  E(vib)   ...       0.02
freq.    1120.32  E(vib)   ...       0.01
freq.    1131.34  E(vib)   ...       0.01
freq.    1152.93  E(vib)   ...       0.01
freq.    1190.89  E(vib)   ...       0.01
freq.    1216.28  E(vib)   ...       0.01
freq.    1219.20  E(vib)   ...       0.01
freq.    1309.98  E(vib)   ...       0.01
freq.    1335.93  E(vib)   ...       0.01
freq.    1368.50  E(vib)   ...       0.01
freq.    1384.70  E(vib)   ...       0.00
freq.    1428.03  E(vib)   ...       0.00
freq.    1459.21  E(vib)   ...       0.00
freq.    1514.18  E(vib)   ...       0.00
freq.    1528.27  E(vib)   ...       0.00
freq.    1534.16  E(vib)   ...       0.00
freq.    1553.49  E(vib)   ...       0.00
freq.    1574.28  E(vib)   ...       0.00
freq.    1698.21  E(vib)   ...       0.00
freq.    1718.30  E(vib)   ...       0.00
freq.    3114.01  E(vib)   ...       0.00
freq.    3116.97  E(vib)   ...       0.00
freq.    3180.64  E(vib)   ...       0.00
freq.    3209.86  E(vib)   ...       0.00
freq.    3219.58  E(vib)   ...       0.00
freq.    3249.43  E(vib)   ...       0.00
freq.    3256.75  E(vib)   ...       0.00
freq.    3273.39  E(vib)   ...       0.00
freq.    3280.16  E(vib)   ...       0.00
freq.    3290.35  E(vib)   ...       0.00

------------
INNER ENERGY
------------

The inner energy is: U= E(el) + E(ZPE) + E(vib) + E(rot) + E(trans)
    E(el)   - is the total energy from the electronic structure calculation
              = E(kin-el) + E(nuc-el) + E(el-el) + E(nuc-nuc)
    E(ZPE)  - the the zero temperature vibrational energy from the frequency calculation
    E(vib)  - the the finite temperature correction to E(ZPE) due to population
              of excited vibrational states
    E(rot)  - is the rotational thermal energy
    E(trans)- is the translational thermal energy

Summary of contributions to the inner energy U:
Electronic energy                ...    -67.64214229 Eh
Zero point energy                ...      0.16538495 Eh     103.78 kcal/mol
Thermal vibrational correction   ...      0.00518332 Eh       3.25 kcal/mol
Thermal rotational correction    ...      0.00141627 Eh       0.89 kcal/mol
Thermal translational correction ...      0.00141627 Eh       0.89 kcal/mol
-----------------------------------------------------------------------
Total thermal energy                    -67.46874147 Eh

Summary of corrections to the electronic energy:
(perhaps to be used in another calculation)
Total thermal correction                  0.00801587 Eh       5.03 kcal/mol
Non-thermal (ZPE) correction              0.16538495 Eh     103.78 kcal/mol
-----------------------------------------------------------------------
Total correction                          0.17340081 Eh     108.81 kcal/mol

--------
ENTHALPY
--------

The enthalpy is H = U + kB*T
                kB is Boltzmann's constant
Total thermal energy              ...    -67.46874147 Eh
Thermal Enthalpy correction       ...      0.00094421 Eh       0.59 kcal/mol
-----------------------------------------------------------------------
Total Enthalpy                    ...    -67.46779727 Eh

Note: Only C1 symmetry has been detected, increase convergence thresholds
      if your molecule has a higher symmetry. Symmetry factor of 1.0 is
      used for the rotational entropy correction.

Note: Rotational entropy computed according to Herzberg
Infrared and Raman Spectra, Chapter V,1, Van Nostrand Reinhold, 1945
Point Group:  C1, Symmetry Number:   1
Rotational constants in cm-1:     0.131077     0.035945     0.030438

Vibrational entropy computed according to the QRRHO of S. Grimme
Chem.Eur.J. 2012 18 9955 using a reference frequency of 100.0 cm-1

-------
ENTROPY
-------

The entropy contributions are T*S = T*(S(el)+S(vib)+S(rot)+S(trans))
     S(el)   - electronic entropy
     S(vib)  - vibrational entropy
     S(rot)  - rotational entropy
     S(trans)- translational entropy
The entropies will be listed as multiplied by the temperature to get
units of energy

Electronic entropy                ...      0.00000000 Eh      0.00 kcal/mol
Vibrational entropy               ...      0.00860185 Eh      5.40 kcal/mol
Rotational entropy                ...      0.01368871 Eh      8.59 kcal/mol
Translational entropy             ...      0.01915481 Eh     12.02 kcal/mol
-----------------------------------------------------------------------
Final entropy term                ...      0.04144537 Eh     26.01 kcal/mol

In case the symmetry of your molecule has not been determined correctly
or in case you have a reason to use a different symmetry number we print
out the resulting rotational entropy values for sn=1,12:

 non-linear molecules -----------------------------------
|  sn= 1 | S(rot)=       0.01368871 Eh      8.59 kcal/mol|
|  sn= 2 | S(rot)=       0.01303426 Eh      8.18 kcal/mol|
|  sn= 3 | S(rot)=       0.01265143 Eh      7.94 kcal/mol|
|  sn= 4 | S(rot)=       0.01237980 Eh      7.77 kcal/mol|
|  sn= 5 | S(rot)=       0.01216911 Eh      7.64 kcal/mol|
|  sn= 6 | S(rot)=       0.01199697 Eh      7.53 kcal/mol|
|  sn= 7 | S(rot)=       0.01185142 Eh      7.44 kcal/mol|
|  sn= 8 | S(rot)=       0.01172534 Eh      7.36 kcal/mol|
|  sn= 9 | S(rot)=       0.01161414 Eh      7.29 kcal/mol|

                             ****ORCA TERMINATED NORMALLY****
TOTAL RUN TIME: 0 days 0 hours 5 minutes 47 seconds 859 msec
