                         Program Version 6.0.1  -  RELEASE   -
|  1> ! wB97X-3c OPT FREQ TightSCF
|  2> %pal
|  3>   nprocs 40
|  4> end
|  5> * xyz 0 1
|  6> C     -4.423020    -0.985591     1.039123
|  7> C     -3.899914     0.416698     0.750486
|  8> O     -2.502439     0.384265     0.467507
|  9> C     -1.971122    -0.057727    -0.751228
| 10> O     -2.734290    -0.407688    -1.691931
| 11> C     -0.514901    -0.114365    -0.953477
| 12> C      0.347847     0.263299    -0.000328
| 13> C      1.822440     0.233062    -0.163561
| 14> C      2.464822    -0.586590    -1.115150
| 15> C      3.859472    -0.586789    -1.220946
| 16> C      4.627772     0.219089    -0.378327
| 17> C      4.003710     1.022686     0.577707
| 18> C      2.609987     1.026676     0.688865
| 19> H     -4.313539    -1.632110     0.143619
| 20> H     -5.498035    -0.934060     1.312107
| 21> H     -3.858149    -1.434059     1.883582
| 22> H     -4.457137     0.870249    -0.097916
| 23> H     -4.063928     1.049777     1.647800
| 24> H     -0.160477    -0.451581    -1.917762
| 25> H     -0.040364     0.653379     0.933589
| 26> H      1.903731    -1.245700    -1.762438
| 27> H      4.345570    -1.218817    -1.953020
| 28> H      5.706893     0.215846    -0.461885
| 29> H      4.600133     1.642716     1.234524
| 30> H      2.144936     1.657334     1.436975
| 31> *
| 32>
| 33>                          ****END OF INPUT****
 Total Charge           Charge          ....    0
 Multiplicity           Mult            ....    1
 Number of Electrons    NEL             ....   68
Dispersion correction           -0.029711689
FINAL SINGLE POINT ENERGY      -101.978380176874
Dispersion correction             ... done (  0.1 sec)
Dispersion correction           -0.030312710
FINAL SINGLE POINT ENERGY      -101.995383201343
Dispersion correction             ... done (  0.1 sec)
Dispersion correction           -0.030377183
FINAL SINGLE POINT ENERGY      -101.996903216541
Dispersion correction             ... done (  0.1 sec)
FINAL SINGLE POINT ENERGY      -101.997137938435
FINAL SINGLE POINT ENERGY      -101.997029665191
FINAL SINGLE POINT ENERGY      -101.997213880678
FINAL SINGLE POINT ENERGY      -101.997224235095
FINAL SINGLE POINT ENERGY      -101.997237867675
FINAL SINGLE POINT ENERGY      -101.997242184615
FINAL SINGLE POINT ENERGY      -101.997247120469
Dispersion correction             ... done (  0.1 sec)
Dispersion correction           -0.030289447
FINAL SINGLE POINT ENERGY      -101.997249089182
Dispersion correction             ... done (  0.1 sec)
Dispersion correction           -0.030290930
FINAL SINGLE POINT ENERGY      -101.997249853853
Dispersion correction             ... done (  0.1 sec)
                    ***********************HURRAY********************

CARTESIAN COORDINATES (ANGSTROEM)
---------------------------------
  C     -4.316046   -0.888343    1.159437
  C     -3.799358    0.423103    0.629750
  O     -2.393017    0.365633    0.372976
  C     -2.010401   -0.160499   -0.793434
  O     -2.781910   -0.564190   -1.625483
  C     -0.549359   -0.200620   -0.975304
  C      0.320852    0.221216   -0.064629
  C      1.780129    0.204898   -0.183019
  C      2.447707   -0.463050   -1.206267
  C      3.825285   -0.438086   -1.279554
  C      4.563846    0.252588   -0.331099
  C      3.913685    0.913371    0.694687
  C      2.532908    0.884673    0.767632
  H     -4.209707   -1.673557    0.414603
  H     -5.372577   -0.791789    1.405762
  H     -3.778904   -1.178772    2.060701
  H     -4.312082    0.708831   -0.285946
  H     -3.909496    1.218344    1.362785
  H     -0.248874   -0.604498   -1.930952
  H     -0.071904    0.630785    0.857677
  H      1.888937   -1.018000   -1.945836
  H      4.329150   -0.963807   -2.078702
  H      5.643171    0.269400   -0.391046
  H      4.481639    1.450721    1.441257
  H      2.026325    1.401647    1.571917

 Multiplicity           Mult            ....    1
 Number of Electrons    NEL             ....   68
 Basis Dimension        Dim             ....  229

ORBITAL ENERGIES
----------------

  NO   OCC          E(Eh)            E(eV)
   0   2.0000      -1.238937       -33.7132
   1   2.0000      -1.140491       -31.0343
   2   2.0000      -1.023451       -27.8495
   3   2.0000      -0.961297       -26.1582
   4   2.0000      -0.918083       -24.9823
   5   2.0000      -0.901666       -24.5356
   6   2.0000      -0.884925       -24.0800
   7   2.0000      -0.804199       -21.8834
   8   2.0000      -0.771470       -20.9928
   9   2.0000      -0.749323       -20.3901
  10   2.0000      -0.715886       -19.4803
  11   2.0000      -0.677959       -18.4482
  12   2.0000      -0.654737       -17.8163
  13   2.0000      -0.641516       -17.4565
  14   2.0000      -0.603317       -16.4171
  15   2.0000      -0.593893       -16.1606
  16   2.0000      -0.587480       -15.9862
  17   2.0000      -0.572181       -15.5698
  18   2.0000      -0.562228       -15.2990
  19   2.0000      -0.550943       -14.9919
  20   2.0000      -0.545992       -14.8572
  21   2.0000      -0.522198       -14.2097
  22   2.0000      -0.511839       -13.9278
  23   2.0000      -0.502288       -13.6679
  24   2.0000      -0.498267       -13.5585
  25   2.0000      -0.482907       -13.1406
  26   2.0000      -0.469189       -12.7673
  27   2.0000      -0.459092       -12.4925
  28   2.0000      -0.449425       -12.2295
  29   2.0000      -0.420995       -11.4559
  30   2.0000      -0.413184       -11.2433
  31   2.0000      -0.389346       -10.5947
  32   2.0000      -0.363553        -9.8928
  33   2.0000      -0.334619        -9.1055
  34   0.0000       0.003506         0.0954
  35   0.0000       0.057695         1.5700
  36   0.0000       0.081219         2.2101
  37   0.0000       0.088394         2.4053
  38   0.0000       0.095233         2.5914

MULLIKEN ATOMIC CHARGES
-----------------------
   0 C :   -0.057619
   1 C :    0.106785
   2 O :   -0.295095
   3 C :    0.243364
   4 O :   -0.339350
   5 C :   -0.004645
   6 C :    0.032121
   7 C :   -0.081036
   8 C :    0.003681
   9 C :   -0.005499
  10 C :   -0.004941
  11 C :    0.001128
  12 C :    0.004535
  13 H :    0.053677
  14 H :    0.037584
  15 H :    0.037494
  16 H :    0.053829
  17 H :    0.042191
  18 H :    0.032894
  19 H :    0.035886
  20 H :    0.019565
  21 H :    0.020203
  22 H :    0.021482
  23 H :    0.019434
  24 H :    0.022330
Sum of atomic charges:    0.0000000

LOEWDIN ATOMIC CHARGES
----------------------
   0 C :   -0.103933
   1 C :   -0.030046
   2 O :   -0.014115
   3 C :   -0.065113
   4 O :   -0.146464
   5 C :   -0.034151
   6 C :    0.003393
   7 C :   -0.051100
   8 C :   -0.020177
   9 C :   -0.040252
  10 C :   -0.037551
  11 C :   -0.042179
  12 C :   -0.026184
  13 H :    0.051007
  14 H :    0.052083
  15 H :    0.046230
  16 H :    0.051260
  17 H :    0.053680
  18 H :    0.051568
  19 H :    0.057290
  20 H :    0.048358
  21 H :    0.049415
  22 H :    0.048653
  23 H :    0.048959
  24 H :    0.049368

  Mayer bond orders larger than 0.100000
B(  0-C ,  1-C ) :   0.9996 B(  0-C , 13-H ) :   0.9879 B(  0-C , 14-H ) :   0.9893
B(  0-C , 15-H ) :   0.9892 B(  1-C ,  2-O ) :   0.8798 B(  1-C , 16-H ) :   0.9947
B(  1-C , 17-H ) :   1.0084 B(  2-O ,  3-C ) :   1.1529 B(  3-C ,  4-O ) :   1.8821
B(  3-C ,  5-C ) :   1.1266 B(  5-C ,  6-C ) :   1.7743 B(  5-C , 18-H ) :   0.9861
B(  6-C ,  7-C ) :   1.1282 B(  6-C , 19-H ) :   0.9848 B(  7-C ,  8-C ) :   1.4204
B(  7-C , 12-C ) :   1.4184 B(  8-C ,  9-C ) :   1.4729 B(  8-C , 20-H ) :   0.9851
B(  9-C , 10-C ) :   1.4293 B(  9-C , 21-H ) :   0.9900 B( 10-C , 11-C ) :   1.4507
B( 10-C , 22-H ) :   0.9927 B( 11-C , 12-C ) :   1.4488 B( 11-C , 23-H ) :   0.9895
B( 12-C , 24-H ) :   0.9871

Dispersion correction           -0.030291443
FINAL SINGLE POINT ENERGY      -101.997250002195

DIPOLE MOMENT
-------------

Method             : SCF
Type of density    : Electron Density
Multiplicity       :   1
Irrep              :   0
Energy             :  -101.9669585591013430 Eh
Relativity type    :
Basis              : AO
                                X                 Y                 Z
Electronic contribution:     13.452172910       1.781194142      -4.356313665
Nuclear contribution   :    -12.830535621      -1.469633494       5.175682203
                        -----------------------------------------
Total Dipole Moment    :      0.621637289       0.311560648       0.819368538
                        -----------------------------------------
Magnitude (a.u.)       :      1.074647736
Magnitude (Debye)      :      2.731537467

VIBRATIONAL FREQUENCIES
-----------------------

Scaling factor for frequencies =  1.000000000  (already applied!)

     0:       0.00 cm**-1
     1:       0.00 cm**-1
     2:       0.00 cm**-1
     3:       0.00 cm**-1
     4:       0.00 cm**-1
     5:       0.00 cm**-1
     6:      17.67 cm**-1
     7:      45.88 cm**-1
     8:      79.09 cm**-1
     9:      84.66 cm**-1
    10:     116.15 cm**-1
    11:     151.35 cm**-1
    12:     193.80 cm**-1
    13:     225.31 cm**-1
    14:     276.46 cm**-1
    15:     327.76 cm**-1
    16:     363.66 cm**-1
    17:     417.07 cm**-1
    18:     436.76 cm**-1
    19:     499.23 cm**-1
    20:     527.96 cm**-1
    21:     612.30 cm**-1
    22:     645.13 cm**-1
    23:     712.34 cm**-1
    24:     733.26 cm**-1
    25:     736.47 cm**-1
    26:     803.76 cm**-1
    27:     817.57 cm**-1
    28:     873.16 cm**-1
    29:     878.00 cm**-1
    30:     902.44 cm**-1
    31:     920.23 cm**-1
    32:     959.33 cm**-1
    33:     981.17 cm**-1
    34:    1015.04 cm**-1
    35:    1030.21 cm**-1
    36:    1039.66 cm**-1
    37:    1041.06 cm**-1
    38:    1081.74 cm**-1
    39:    1123.19 cm**-1
    40:    1132.75 cm**-1
    41:    1154.11 cm**-1
    42:    1196.06 cm**-1
    43:    1224.18 cm**-1
    44:    1228.69 cm**-1
    45:    1254.83 cm**-1
    46:    1315.63 cm**-1
    47:    1338.59 cm**-1
    48:    1355.34 cm**-1
    49:    1366.89 cm**-1
    50:    1372.92 cm**-1
    51:    1391.29 cm**-1
    52:    1430.71 cm**-1
    53:    1465.46 cm**-1
    54:    1515.64 cm**-1
    55:    1521.89 cm**-1
    56:    1525.78 cm**-1
    57:    1537.30 cm**-1
    58:    1574.34 cm**-1
    59:    1692.46 cm**-1
    60:    1719.14 cm**-1
    61:    1764.52 cm**-1
    62:    1852.66 cm**-1
    63:    3116.81 cm**-1
    64:    3148.26 cm**-1
    65:    3206.17 cm**-1
    66:    3213.36 cm**-1
    67:    3229.70 cm**-1
    68:    3246.81 cm**-1
    69:    3251.17 cm**-1
    70:    3254.36 cm**-1
    71:    3263.80 cm**-1
    72:    3272.49 cm**-1
    73:    3278.92 cm**-1
    74:    3284.46 cm**-1

IR SPECTRUM
-----------

 Mode   freq       eps      Int      T**2         TX        TY        TZ
       cm**-1   L/(mol*cm) km/mol    a.u.
----------------------------------------------------------------------------
  6:     17.67   0.000161    0.81  0.002841  (-0.011821 -0.049464  0.015954)
  7:     45.88   0.000123    0.62  0.000837  ( 0.002607 -0.022219  0.018334)
  8:     79.09   0.000033    0.16  0.000129  ( 0.001429 -0.002465  0.010976)
  9:     84.66   0.000197    0.99  0.000724  (-0.024600  0.006154 -0.009023)
 10:    116.15   0.000133    0.67  0.000358  ( 0.014651  0.004471 -0.011128)
 11:    151.35   0.000310    1.57  0.000639  ( 0.006972 -0.022696  0.008671)
 12:    193.80   0.000220    1.11  0.000355  ( 0.001179 -0.012657 -0.013899)
 13:    225.31   0.000315    1.59  0.000436  ( 0.013902  0.000274 -0.015573)
 14:    276.46   0.000215    1.08  0.000242  (-0.006185 -0.012414  0.007063)
 15:    327.76   0.001251    6.32  0.001191  (-0.020456  0.001258  0.027761)
 16:    363.66   0.001830    9.25  0.001571  ( 0.030417 -0.002768 -0.025255)
 17:    417.07   0.000049    0.25  0.000037  (-0.005472 -0.002481  0.000945)
 18:    436.76   0.000850    4.29  0.000607  ( 0.010853 -0.019016 -0.011300)
 19:    499.23   0.002381   12.03  0.001488  ( 0.006752  0.032758 -0.019226)
 20:    527.96   0.000887    4.48  0.000525  (-0.011835  0.014715 -0.012959)
 21:    612.30   0.003198   16.16  0.001630  ( 0.039906  0.004028  0.004603)
 22:    645.13   0.000017    0.09  0.000008  ( 0.002770  0.000514  0.000628)
 23:    712.34   0.005761   29.11  0.002524  (-0.001594  0.042178 -0.027242)
 24:    733.26   0.000587    2.97  0.000250  ( 0.011140 -0.010619  0.003584)
 25:    736.47   0.003835   19.38  0.001625  ( 0.000713 -0.031840  0.024713)
 26:    803.76   0.008584   43.38  0.003333  (-0.004215  0.048608 -0.030860)
 27:    817.57   0.001182    5.97  0.000451  ( 0.002756  0.006315  0.020092)
 28:    873.16   0.000108    0.55  0.000039  ( 0.001930 -0.004670  0.003623)
 29:    878.00   0.000836    4.22  0.000297  ( 0.014723  0.003181  0.008378)
 30:    902.44   0.000837    4.23  0.000289  (-0.014984 -0.004931 -0.006375)
 31:    920.23   0.002628   13.28  0.000891  ( 0.000821  0.027720 -0.011059)
 32:    959.33   0.000135    0.68  0.000044  ( 0.003331  0.004837 -0.003076)
 33:    981.17   0.001465    7.40  0.000466  (-0.003922  0.005969  0.020371)
 34:   1015.04   0.000007    0.03  0.000002  (-0.001251  0.000682 -0.000054)
 35:   1030.21   0.003185   16.09  0.000965  ( 0.000106 -0.027924  0.013597)
 36:   1039.66   0.005477   27.68  0.001644  (-0.000332  0.036608 -0.017432)
 37:   1041.06   0.000148    0.75  0.000044  (-0.005468  0.003376 -0.001753)
 38:   1081.74   0.001098    5.55  0.000317  (-0.017640 -0.001695  0.001607)
 39:   1123.19   0.011163   56.41  0.003102  (-0.049290 -0.007686  0.024759)
 40:   1132.75   0.003940   19.91  0.001086  (-0.018179  0.008389  0.026167)
 41:   1154.11   0.011013   55.66  0.002978  (-0.048356  0.018383  0.017369)
 42:   1196.06   0.000219    1.11  0.000057  ( 0.004300 -0.002720 -0.005583)
 43:   1224.18   0.002025   10.23  0.000516  (-0.011211  0.006226  0.018754)
 44:   1228.69   0.000877    4.43  0.000223  (-0.013657 -0.002735 -0.005354)
 45:   1254.83   0.010252   51.81  0.002549  ( 0.049235 -0.000794 -0.011167)
 46:   1315.63   0.000291    1.47  0.000069  ( 0.003390  0.002196  0.007254)
 47:   1338.59   0.066763  337.39  0.015564  (-0.112696  0.010840  0.052406)
 48:   1355.34   0.018508   93.53  0.004261  ( 0.062649 -0.001258 -0.018300)
 49:   1366.89   0.030655  154.92  0.006999  (-0.075528  0.005188  0.035598)
 50:   1372.92   0.018496   93.47  0.004204  ( 0.052085 -0.009974 -0.037306)
 51:   1391.29   0.003044   15.38  0.000683  (-0.024722  0.002032  0.008217)
 52:   1430.71   0.014180   71.66  0.003093  (-0.051078 -0.009870  0.019662)
 53:   1465.46   0.002428   12.27  0.000517  ( 0.013344 -0.018356  0.001395)
 54:   1515.64   0.002873   14.52  0.000591  (-0.011777 -0.009548 -0.019017)
 55:   1521.89   0.002016   10.19  0.000413  ( 0.012988 -0.006094 -0.014405)
 56:   1525.78   0.004225   21.35  0.000864  (-0.026624  0.009664  0.007867)
 57:   1537.30   0.004747   23.99  0.000964  ( 0.029030 -0.010241  0.004001)
 58:   1574.34   0.001681    8.49  0.000333  (-0.018132  0.000070  0.002093)
 59:   1692.46   0.001206    6.09  0.000222  ( 0.014605  0.002343  0.001884)
 60:   1719.14   0.000022    0.11  0.000004  (-0.000859  0.000751  0.001630)
 61:   1764.52   0.008360   42.25  0.001479  ( 0.035217 -0.004868 -0.014648)
 62:   1852.66   0.104294  527.06  0.017567  ( 0.096253  0.038475  0.082599)
 63:   3116.81   0.003019   15.26  0.000302  ( 0.009174  0.010938 -0.009925)
 64:   3148.26   0.006253   31.60  0.000620  ( 0.016523 -0.017770 -0.005573)
 65:   3206.17   0.001075    5.43  0.000105  (-0.009077  0.004674  0.000615)
 66:   3213.36   0.001682    8.50  0.000163  (-0.011513  0.003799 -0.004042)
 67:   3229.70   0.001422    7.19  0.000137  ( 0.000952 -0.004331 -0.010852)
 68:   3246.81   0.000314    1.59  0.000030  (-0.004924  0.001307  0.002049)
 69:   3251.17   0.000220    1.11  0.000021  ( 0.004094 -0.000623 -0.001982)
 70:   3254.36   0.000036    0.18  0.000003  (-0.001229  0.000909  0.001067)
 71:   3263.80   0.001279    6.46  0.000122  ( 0.007048 -0.004000 -0.007521)
 72:   3272.49   0.002101   10.62  0.000200  ( 0.007281  0.007763  0.009331)
 73:   3278.92   0.000812    4.10  0.000077  (-0.008780  0.000131 -0.000360)
 74:   3284.46   0.000896    4.53  0.000085  ( 0.007472 -0.002319 -0.004887)

--------------------------
THERMOCHEMISTRY AT 298.15K
--------------------------

Temperature         ...   298.15 K
Pressure            ...     1.00 atm
Total Mass          ...   176.22 AMU
Quasi RRHO          ...     True
Cut-Off Frequency   ...     1.00 cm^-1

Throughout the following assumptions are being made:
  (1) The electronic state is orbitally nondegenerate
  (2) There are no thermally accessible electronically excited states
  (3) Hindered rotations indicated by low frequency modes are not
      treated as such but are treated as vibrations and this may
      cause some error
  (4) All equations used are the standard statistical mechanics
      equations for an ideal gas
  (5) All vibrations are strictly harmonic

freq.      17.67  E(vib)   ...       0.57
freq.      45.88  E(vib)   ...       0.53
freq.      79.09  E(vib)   ...       0.49
freq.      84.66  E(vib)   ...       0.48
freq.     116.15  E(vib)   ...       0.44
freq.     151.35  E(vib)   ...       0.40
freq.     193.80  E(vib)   ...       0.36
freq.     225.31  E(vib)   ...       0.33
freq.     276.46  E(vib)   ...       0.28
freq.     327.76  E(vib)   ...       0.24
freq.     363.66  E(vib)   ...       0.22
freq.     417.07  E(vib)   ...       0.18
freq.     436.76  E(vib)   ...       0.17
freq.     499.23  E(vib)   ...       0.14
freq.     527.96  E(vib)   ...       0.13
freq.     612.30  E(vib)   ...       0.10
freq.     645.13  E(vib)   ...       0.09
freq.     712.34  E(vib)   ...       0.07
freq.     733.26  E(vib)   ...       0.06
freq.     736.47  E(vib)   ...       0.06
freq.     803.76  E(vib)   ...       0.05
freq.     817.57  E(vib)   ...       0.05
freq.     873.16  E(vib)   ...       0.04
freq.     878.00  E(vib)   ...       0.04
freq.     902.44  E(vib)   ...       0.03
freq.     920.23  E(vib)   ...       0.03
freq.     959.33  E(vib)   ...       0.03
freq.     981.17  E(vib)   ...       0.02
freq.    1015.04  E(vib)   ...       0.02
freq.    1030.21  E(vib)   ...       0.02
freq.    1039.66  E(vib)   ...       0.02
freq.    1041.06  E(vib)   ...       0.02
freq.    1081.74  E(vib)   ...       0.02
freq.    1123.19  E(vib)   ...       0.01
freq.    1132.75  E(vib)   ...       0.01
freq.    1154.11  E(vib)   ...       0.01
freq.    1196.06  E(vib)   ...       0.01
freq.    1224.18  E(vib)   ...       0.01
freq.    1228.69  E(vib)   ...       0.01
freq.    1254.83  E(vib)   ...       0.01
freq.    1315.63  E(vib)   ...       0.01
freq.    1338.59  E(vib)   ...       0.01
freq.    1355.34  E(vib)   ...       0.01
freq.    1366.89  E(vib)   ...       0.01
freq.    1372.92  E(vib)   ...       0.01
freq.    1391.29  E(vib)   ...       0.00
freq.    1430.71  E(vib)   ...       0.00
freq.    1465.46  E(vib)   ...       0.00
freq.    1515.64  E(vib)   ...       0.00
freq.    1521.89  E(vib)   ...       0.00
freq.    1525.78  E(vib)   ...       0.00
freq.    1537.30  E(vib)   ...       0.00
freq.    1574.34  E(vib)   ...       0.00
freq.    1692.46  E(vib)   ...       0.00
freq.    1719.14  E(vib)   ...       0.00
freq.    1764.52  E(vib)   ...       0.00
freq.    1852.66  E(vib)   ...       0.00
freq.    3116.81  E(vib)   ...       0.00
freq.    3148.26  E(vib)   ...       0.00
freq.    3206.17  E(vib)   ...       0.00
freq.    3213.36  E(vib)   ...       0.00
freq.    3229.70  E(vib)   ...       0.00
freq.    3246.81  E(vib)   ...       0.00
freq.    3251.17  E(vib)   ...       0.00
freq.    3254.36  E(vib)   ...       0.00
freq.    3263.80  E(vib)   ...       0.00
freq.    3272.49  E(vib)   ...       0.00
freq.    3278.92  E(vib)   ...       0.00
freq.    3284.46  E(vib)   ...       0.00

------------
INNER ENERGY
------------

The inner energy is: U= E(el) + E(ZPE) + E(vib) + E(rot) + E(trans)
    E(el)   - is the total energy from the electronic structure calculation
              = E(kin-el) + E(nuc-el) + E(el-el) + E(nuc-nuc)
    E(ZPE)  - the the zero temperature vibrational energy from the frequency calculation
    E(vib)  - the the finite temperature correction to E(ZPE) due to population
              of excited vibrational states
    E(rot)  - is the rotational thermal energy
    E(trans)- is the translational thermal energy

Summary of contributions to the inner energy U:
Electronic energy                ...   -101.99725000 Eh
Zero point energy                ...      0.21042600 Eh     132.04 kcal/mol
Thermal vibrational correction   ...      0.00933565 Eh       5.86 kcal/mol
Thermal rotational correction    ...      0.00141627 Eh       0.89 kcal/mol
Thermal translational correction ...      0.00141627 Eh       0.89 kcal/mol
-----------------------------------------------------------------------
Total thermal energy                   -101.77465581 Eh

Summary of corrections to the electronic energy:
(perhaps to be used in another calculation)
Total thermal correction                  0.01216820 Eh       7.64 kcal/mol
Non-thermal (ZPE) correction              0.21042600 Eh     132.04 kcal/mol
-----------------------------------------------------------------------
Total correction                          0.22259419 Eh     139.68 kcal/mol

--------
ENTHALPY
--------

The enthalpy is H = U + kB*T
                kB is Boltzmann's constant
Total thermal energy              ...   -101.77465581 Eh
Thermal Enthalpy correction       ...      0.00094421 Eh       0.59 kcal/mol
-----------------------------------------------------------------------
Total Enthalpy                    ...   -101.77371160 Eh

Note: Only C1 symmetry has been detected, increase convergence thresholds
      if your molecule has a higher symmetry. Symmetry factor of 1.0 is
      used for the rotational entropy correction.

Note: Rotational entropy computed according to Herzberg
Infrared and Raman Spectra, Chapter V,1, Van Nostrand Reinhold, 1945
Point Group:  C1, Symmetry Number:   1
Rotational constants in cm-1:     0.083732     0.010056     0.009256

Vibrational entropy computed according to the QRRHO of S. Grimme
Chem.Eur.J. 2012 18 9955 using a reference frequency of 100.0 cm-1

-------
ENTROPY
-------

The entropy contributions are T*S = T*(S(el)+S(vib)+S(rot)+S(trans))
     S(el)   - electronic entropy
     S(vib)  - vibrational entropy
     S(rot)  - rotational entropy
     S(trans)- translational entropy
The entropies will be listed as multiplied by the temperature to get
units of energy

Electronic entropy                ...      0.00000000 Eh      0.00 kcal/mol
Vibrational entropy               ...      0.01676902 Eh     10.52 kcal/mol
Rotational entropy                ...      0.01506362 Eh      9.45 kcal/mol

                             ****ORCA TERMINATED NORMALLY****
TOTAL RUN TIME: 0 days 0 hours 14 minutes 10 seconds 631 msec
