                         Program Version 6.0.1  -  RELEASE   -
|  1> ! wB97X-3c OPT FREQ TightSCF
|  2> %pal
|  3>   nprocs 40
|  4> end
|  5> * xyz 0 1
|  6> C     -0.970317    -3.019359    -0.617734
|  7> C     -1.352660    -1.656859    -0.027731
|  8> C     -2.775162    -1.266348    -0.402827
|  9> C     -2.791460     0.239590    -0.265876
| 10> C     -1.428914     0.709133    -0.798673
| 11> C     -0.464976    -0.498695    -0.531917
| 12> C      0.601342    -0.122655     0.513000
| 13> C      1.707955     0.642041    -0.256450
| 14> C      2.066217    -0.539782     0.631408
| 15> C      2.784579    -0.205143     1.943084
| 16> C      2.499500    -1.815948    -0.095964
| 17> C      1.559106     2.118536     0.097164
| 18> C      0.381133     2.676858    -0.724746
| 19> C     -0.967986     2.106338    -0.289294
| 20> C     -1.760655     2.903715     0.457069
| 21> H      0.040935    -3.313473    -0.273106
| 22> H     -1.688448    -3.794204    -0.274504
| 23> H     -0.981225    -2.989870    -1.728458
| 24> H     -1.299773    -1.729599     1.083366
| 25> H     -3.520561    -1.743119     0.270696
| 26> H     -3.000398    -1.541494    -1.458053
| 27> H     -2.896931     0.461785     0.818499
| 28> H     -3.635339     0.690835    -0.831720
| 29> H     -1.537299     0.805621    -1.902670
| 30> H     -0.010052    -0.796928    -1.503936
| 31> H      0.210361     0.357444     1.439163
| 32> H      1.822011     0.425114    -1.342974
| 33> H      3.843235     0.050889     1.728852
| 34> H      2.316586     0.642789     2.483827
| 35> H      2.760587    -1.090532     2.612171
| 36> H      1.976378    -1.953737    -1.064458
| 37> H      3.590196    -1.771189    -0.297181
| 38> H      2.294762    -2.695458     0.549059
| 39> H      1.398169     2.307692     1.180307
| 40> H      2.491095     2.642881    -0.202038
| 41> H      0.533788     2.457633    -1.804335
| 42> H      0.391391     3.786084    -0.640126
| 43> H     -1.418089     3.881301     0.783129
| 44> H     -2.769078     2.638113     0.743979
| 45> *
| 46>
| 47>                          ****END OF INPUT****
 Total Charge           Charge          ....    0
 Multiplicity           Mult            ....    1
 Number of Electrons    NEL             ....   84
Dispersion correction           -0.052464717
FINAL SINGLE POINT ENERGY       -99.882087008392
Dispersion correction             ... done (  0.1 sec)
Dispersion correction           -0.052954497
FINAL SINGLE POINT ENERGY       -99.900896765489
Dispersion correction             ... done (  0.1 sec)
Dispersion correction           -0.053154407
FINAL SINGLE POINT ENERGY       -99.907251033338
Dispersion correction             ... done (  0.0 sec)
FINAL SINGLE POINT ENERGY       -99.909686876941
FINAL SINGLE POINT ENERGY       -99.910800631201
FINAL SINGLE POINT ENERGY       -99.911354592153
FINAL SINGLE POINT ENERGY       -99.911629621623
FINAL SINGLE POINT ENERGY       -99.911849757742
FINAL SINGLE POINT ENERGY       -99.912062474858
FINAL SINGLE POINT ENERGY       -99.912289820907
FINAL SINGLE POINT ENERGY       -99.912504141730
FINAL SINGLE POINT ENERGY       -99.912645953030
FINAL SINGLE POINT ENERGY       -99.912716872069
FINAL SINGLE POINT ENERGY       -99.912749828874
FINAL SINGLE POINT ENERGY       -99.912824342074
FINAL SINGLE POINT ENERGY       -99.912839809329
Dispersion correction             ... done (  0.1 sec)
Dispersion correction           -0.053396415
FINAL SINGLE POINT ENERGY       -99.912849861112
Dispersion correction             ... done (  0.0 sec)
Dispersion correction           -0.053395146
FINAL SINGLE POINT ENERGY       -99.912852273798
Dispersion correction             ... done (  0.1 sec)
                    ***********************HURRAY********************

CARTESIAN COORDINATES (ANGSTROEM)
---------------------------------
  C     -1.177036   -2.829552    0.462715
  C     -1.574166   -1.393162    0.205659
  C     -2.761512   -1.205859   -0.725279
  C     -2.712124    0.272428   -1.113732
  C     -1.238955    0.709741   -0.984791
  C     -0.495391   -0.568611   -0.479548
  C      0.671367   -0.156593    0.358372
  C      1.648952    0.752203   -0.305635
  C      2.128938   -0.510836    0.346641
  C      2.848424   -0.453344    1.667145
  C      2.633474   -1.593415   -0.568645
  C      1.581471    2.181211    0.138681
  C      0.267102    2.759244   -0.411200
  C     -0.974186    1.934725   -0.114041
  C     -1.763983    2.305467    0.886150
  H     -0.296330   -2.884655    1.103033
  H     -1.978852   -3.385428    0.948906
  H     -0.939897   -3.336955   -0.474279
  H     -1.805764   -0.910571    1.162306
  H     -3.711408   -1.492242   -0.273199
  H     -2.623105   -1.838625   -1.606249
  H     -3.350761    0.856869   -0.456984
  H     -3.084655    0.439807   -2.123464
  H     -0.849312    0.956267   -1.973504
  H     -0.156724   -1.126171   -1.358230
  H      0.355715    0.217061    1.326837
  H      1.635321    0.663147   -1.388871
  H      3.915018   -0.279755    1.517569
  H      2.466683    0.343400    2.302399
  H      2.735452   -1.393619    2.208776
  H      2.096471   -1.607502   -1.515133
  H      3.692349   -1.450833   -0.789107
  H      2.516995   -2.574253   -0.105081
  H      1.581302    2.248785    1.227509
  H      2.419006    2.781474   -0.223199
  H      0.364461    2.858944   -1.495682
  H      0.123159    3.766637   -0.020161
  H     -1.530655    3.180933    1.479107
  H     -2.656839    1.763635    1.164213

 Multiplicity           Mult            ....    1
 Number of Electrons    NEL             ....   84
 Basis Dimension        Dim             ....  315

ORBITAL ENERGIES
----------------

  NO   OCC          E(Eh)            E(eV)
   0   2.0000      -1.029882       -28.0245
   1   2.0000      -0.986070       -26.8323
   2   2.0000      -0.945524       -25.7290
   3   2.0000      -0.891898       -24.2698
   4   2.0000      -0.872727       -23.7481
   5   2.0000      -0.866737       -23.5851
   6   2.0000      -0.827273       -22.5112
   7   2.0000      -0.823584       -22.4109
   8   2.0000      -0.787787       -21.4368
   9   2.0000      -0.761312       -20.7163
  10   2.0000      -0.721921       -19.6445
  11   2.0000      -0.688719       -18.7410
  12   2.0000      -0.686835       -18.6897
  13   2.0000      -0.658196       -17.9104
  14   2.0000      -0.619705       -16.8630
  15   2.0000      -0.606036       -16.4911
  16   2.0000      -0.584721       -15.9111
  17   2.0000      -0.578777       -15.7493
  18   2.0000      -0.573501       -15.6058
  19   2.0000      -0.553000       -15.0479
  20   2.0000      -0.550199       -14.9717
  21   2.0000      -0.536915       -14.6102
  22   2.0000      -0.525265       -14.2932
  23   2.0000      -0.514072       -13.9886
  24   2.0000      -0.510147       -13.8818
  25   2.0000      -0.501582       -13.6488
  26   2.0000      -0.491594       -13.3769
  27   2.0000      -0.488040       -13.2802
  28   2.0000      -0.482745       -13.1362
  29   2.0000      -0.471588       -12.8326
  30   2.0000      -0.467884       -12.7318
  31   2.0000      -0.456132       -12.4120
  32   2.0000      -0.441890       -12.0244
  33   2.0000      -0.436971       -11.8906
  34   2.0000      -0.428555       -11.6616
  35   2.0000      -0.424671       -11.5559
  36   2.0000      -0.416771       -11.3409
  37   2.0000      -0.412761       -11.2318
  38   2.0000      -0.408595       -11.1184
  39   2.0000      -0.363961        -9.9039
  40   2.0000      -0.351825        -9.5737
  41   2.0000      -0.333414        -9.0726
  42   0.0000       0.075944         2.0666
  43   0.0000       0.089698         2.4408
  44   0.0000       0.095037         2.5861
  45   0.0000       0.096927         2.6375
  46   0.0000       0.103370         2.8128

MULLIKEN ATOMIC CHARGES
-----------------------
   0 C :   -0.027796
   1 C :   -0.062812
   2 C :   -0.029208
   3 C :   -0.017037
   4 C :   -0.078040
   5 C :   -0.059808
   6 C :    0.002010
   7 C :   -0.044709
   8 C :   -0.102791
   9 C :   -0.015066
  10 C :   -0.015384
  11 C :   -0.023422
  12 C :   -0.032416
  13 C :   -0.094813
  14 C :   -0.001729
  15 H :    0.024188
  16 H :    0.027555
  17 H :    0.020021
  18 H :    0.026941
  19 H :    0.030583
  20 H :    0.022282
  21 H :    0.022995
  22 H :    0.030618
  23 H :    0.032220
  24 H :    0.021386
  25 H :    0.025077
  26 H :    0.021590
  27 H :    0.029817
  28 H :    0.020248
  29 H :    0.025438
  30 H :    0.018230
  31 H :    0.030229
  32 H :    0.023957
  33 H :    0.023812
  34 H :    0.030657
  35 H :    0.032653
  36 H :    0.026683
  37 H :    0.017317
  38 H :    0.018528
Sum of atomic charges:   -0.0000000

LOEWDIN ATOMIC CHARGES
----------------------
   0 C :   -0.107035
   1 C :   -0.073965
   2 C :   -0.073563
   3 C :   -0.059350
   4 C :   -0.036713
   5 C :   -0.050763
   6 C :   -0.047575
   7 C :   -0.051458
   8 C :   -0.066407
   9 C :   -0.099825
  10 C :   -0.100060
  11 C :   -0.077016
  12 C :   -0.070646
  13 C :   -0.022833
  14 C :   -0.081286
  15 H :    0.044099
  16 H :    0.044128
  17 H :    0.041601
  18 H :    0.045157
  19 H :    0.040365
  20 H :    0.041090
  21 H :    0.036838
  22 H :    0.041166
  23 H :    0.041069
  24 H :    0.043150
  25 H :    0.046097
  26 H :    0.044799
  27 H :    0.046197
  28 H :    0.044818
  29 H :    0.045593
  30 H :    0.043191
  31 H :    0.046392
  32 H :    0.044962
  33 H :    0.042775
  34 H :    0.043653
  35 H :    0.045788
  36 H :    0.048911
  37 H :    0.031899
  38 H :    0.024758

  Mayer bond orders larger than 0.100000
B(  0-C ,  1-C ) :   1.0172 B(  0-C , 15-H ) :   0.9927 B(  0-C , 16-H ) :   0.9930
B(  0-C , 17-H ) :   0.9898 B(  1-C ,  2-C ) :   0.9860 B(  1-C ,  5-C ) :   0.9695
B(  1-C , 18-H ) :   0.9884 B(  2-C ,  3-C ) :   0.9919 B(  2-C , 19-H ) :   1.0018
B(  2-C , 20-H ) :   0.9936 B(  3-C ,  4-C ) :   0.9911 B(  3-C , 21-H ) :   0.9954
B(  3-C , 22-H ) :   1.0015 B(  4-C ,  5-C ) :   0.9770 B(  4-C , 13-C ) :   1.0178
B(  4-C , 23-H ) :   0.9994 B(  5-C ,  6-C ) :   1.0253 B(  5-C , 24-H ) :   0.9893
B(  6-C ,  7-C ) :   0.8948 B(  6-C ,  8-C ) :   0.9468 B(  6-C , 25-H ) :   0.9881
B(  7-C ,  8-C ) :   0.9653 B(  7-C , 11-C ) :   1.0030 B(  7-C , 26-H ) :   0.9929
B(  8-C ,  9-C ) :   1.0248 B(  8-C , 10-C ) :   1.0261 B(  9-C , 27-H ) :   0.9860
B(  9-C , 28-H ) :   0.9882 B(  9-C , 29-H ) :   0.9854 B( 10-C , 30-H ) :   0.9881
B( 10-C , 31-H ) :   0.9867 B( 10-C , 32-H ) :   0.9853 B( 11-C , 12-C ) :   0.9821
B( 11-C , 33-H ) :   0.9909 B( 11-C , 34-H ) :   0.9950 B( 12-C , 13-C ) :   1.0113
B( 12-C , 35-H ) :   0.9905 B( 12-C , 36-H ) :   0.9986 B( 13-C , 14-C ) :   1.9523
B( 14-C , 37-H ) :   0.9816 B( 14-C , 38-H ) :   0.9832

Dispersion correction           -0.053391651
FINAL SINGLE POINT ENERGY       -99.912853003471

DIPOLE MOMENT
-------------

Method             : SCF
Type of density    : Electron Density
Multiplicity       :   1
Irrep              :   0
Energy             :   -99.8594613520129997 Eh
Relativity type    :
Basis              : AO
                                X                 Y                 Z
Electronic contribution:     -2.502922430       6.275103354      -1.904482043
Nuclear contribution   :      2.640515174      -6.341101836       1.834458097
                        -----------------------------------------
Total Dipole Moment    :      0.137592744      -0.065998482      -0.070023946
                        -----------------------------------------
Magnitude (a.u.)       :      0.167901506
Magnitude (Debye)      :      0.426771712

VIBRATIONAL FREQUENCIES
-----------------------

Scaling factor for frequencies =  1.000000000  (already applied!)

     0:       0.00 cm**-1
     1:       0.00 cm**-1
     2:       0.00 cm**-1
     3:       0.00 cm**-1
     4:       0.00 cm**-1
     5:       0.00 cm**-1
     6:      35.63 cm**-1
     7:     103.47 cm**-1
     8:     122.40 cm**-1
     9:     137.60 cm**-1
    10:     145.30 cm**-1
    11:     172.70 cm**-1
    12:     206.45 cm**-1
    13:     219.61 cm**-1
    14:     236.05 cm**-1
    15:     245.34 cm**-1
    16:     271.55 cm**-1
    17:     286.10 cm**-1
    18:     330.03 cm**-1
    19:     350.03 cm**-1
    20:     374.01 cm**-1
    21:     375.16 cm**-1
    22:     424.52 cm**-1
    23:     447.21 cm**-1
    24:     465.69 cm**-1
    25:     481.92 cm**-1
    26:     542.98 cm**-1
    27:     547.30 cm**-1
    28:     584.95 cm**-1
    29:     640.36 cm**-1
    30:     718.95 cm**-1
    31:     747.47 cm**-1
    32:     764.89 cm**-1
    33:     778.97 cm**-1
    34:     848.51 cm**-1
    35:     860.76 cm**-1
    36:     883.55 cm**-1
    37:     905.05 cm**-1
    38:     935.80 cm**-1
    39:     941.56 cm**-1
    40:     960.14 cm**-1
    41:     983.25 cm**-1
    42:     985.90 cm**-1
    43:     993.17 cm**-1
    44:    1010.13 cm**-1
    45:    1015.78 cm**-1
    46:    1028.88 cm**-1
    47:    1038.11 cm**-1
    48:    1052.14 cm**-1
    49:    1064.45 cm**-1
    50:    1088.37 cm**-1
    51:    1108.22 cm**-1
    52:    1126.01 cm**-1
    53:    1153.25 cm**-1
    54:    1160.99 cm**-1
    55:    1174.36 cm**-1
    56:    1180.14 cm**-1
    57:    1201.31 cm**-1
    58:    1213.69 cm**-1
    59:    1221.39 cm**-1
    60:    1257.08 cm**-1
    61:    1259.74 cm**-1
    62:    1262.23 cm**-1
    63:    1286.46 cm**-1
    64:    1295.20 cm**-1
    65:    1316.14 cm**-1
    66:    1326.42 cm**-1
    67:    1337.51 cm**-1
    68:    1353.55 cm**-1
    69:    1359.91 cm**-1
    70:    1363.98 cm**-1
    71:    1376.66 cm**-1
    72:    1393.61 cm**-1
    73:    1404.52 cm**-1
    74:    1421.40 cm**-1
    75:    1426.75 cm**-1
    76:    1445.93 cm**-1
    77:    1451.53 cm**-1
    78:    1456.38 cm**-1
    79:    1469.38 cm**-1
    80:    1474.17 cm**-1
    81:    1510.47 cm**-1
    82:    1516.60 cm**-1
    83:    1518.93 cm**-1
    84:    1522.20 cm**-1
    85:    1525.57 cm**-1
    86:    1525.97 cm**-1
    87:    1528.89 cm**-1
    88:    1529.29 cm**-1
    89:    1532.94 cm**-1
    90:    1546.11 cm**-1
    91:    1586.48 cm**-1
    92:    1760.65 cm**-1
    93:    3068.19 cm**-1
    94:    3084.60 cm**-1
    95:    3089.50 cm**-1
    96:    3091.98 cm**-1
    97:    3092.36 cm**-1
    98:    3094.28 cm**-1
    99:    3095.64 cm**-1
   100:    3101.67 cm**-1
   101:    3114.75 cm**-1
   102:    3140.44 cm**-1
   103:    3151.62 cm**-1
   104:    3156.94 cm**-1
   105:    3159.56 cm**-1
   106:    3169.51 cm**-1
   107:    3174.15 cm**-1
   108:    3175.76 cm**-1
   109:    3176.86 cm**-1
   110:    3183.81 cm**-1
   111:    3187.02 cm**-1
   112:    3197.57 cm**-1
   113:    3198.24 cm**-1
   114:    3201.10 cm**-1
   115:    3211.32 cm**-1
   116:    3301.42 cm**-1

IR SPECTRUM
-----------

 Mode   freq       eps      Int      T**2         TX        TY        TZ
       cm**-1   L/(mol*cm) km/mol    a.u.
----------------------------------------------------------------------------
  6:     35.63   0.000005    0.03  0.000043  (-0.005036 -0.004039  0.001308)
  7:    103.47   0.000005    0.03  0.000015  (-0.003194 -0.002085  0.000869)
  8:    122.40   0.000004    0.02  0.000010  ( 0.002175  0.002303  0.000004)
  9:    137.60   0.000021    0.11  0.000048  (-0.003131 -0.005482  0.002786)
 10:    145.30   0.000004    0.02  0.000009  ( 0.001553 -0.001050  0.002300)
 11:    172.70   0.000018    0.09  0.000032  (-0.000155  0.004420 -0.003503)
 12:    206.45   0.000004    0.02  0.000006  ( 0.002251  0.000073  0.001127)
 13:    219.61   0.000024    0.12  0.000035  (-0.005449 -0.002123 -0.000676)
 14:    236.05   0.000013    0.07  0.000017  ( 0.003490 -0.002216 -0.000135)
 15:    245.34   0.000009    0.04  0.000011  ( 0.002191  0.001574 -0.001987)
 16:    271.55   0.000114    0.57  0.000131  ( 0.009622  0.004166 -0.004555)
 17:    286.10   0.000016    0.08  0.000018  (-0.003582 -0.001005  0.002028)
 18:    330.03   0.000104    0.53  0.000099  ( 0.007080  0.004955  0.004893)
 19:    350.03   0.000061    0.31  0.000054  (-0.003190 -0.002436  0.006184)
 20:    374.01   0.000159    0.80  0.000132  (-0.001147 -0.011351  0.001513)
 21:    375.16   0.000028    0.14  0.000023  (-0.002328  0.003358  0.002504)
 22:    424.52   0.000058    0.29  0.000043  (-0.005698  0.002137 -0.002416)
 23:    447.21   0.000143    0.72  0.000099  (-0.000664  0.006951 -0.007121)
 24:    465.69   0.000011    0.05  0.000007  ( 0.000681  0.001233 -0.002295)
 25:    481.92   0.000099    0.50  0.000064  (-0.006285 -0.000375 -0.004918)
 26:    542.98   0.000287    1.45  0.000165  ( 0.007019 -0.010081  0.003764)
 27:    547.30   0.000177    0.90  0.000101  (-0.006190 -0.006735 -0.004182)
 28:    584.95   0.000039    0.20  0.000021  ( 0.002394 -0.001007 -0.003757)
 29:    640.36   0.000445    2.25  0.000217  ( 0.006539 -0.004145  0.012530)
 30:    718.95   0.000751    3.80  0.000326  (-0.013844  0.008739 -0.007611)
 31:    747.47   0.000032    0.16  0.000013  (-0.002804  0.002335  0.000056)
 32:    764.89   0.000071    0.36  0.000029  (-0.002060  0.002507 -0.004310)
 33:    778.97   0.000160    0.81  0.000064  ( 0.004252 -0.004821  0.004765)
 34:    848.51   0.000128    0.65  0.000047  (-0.003965 -0.003591  0.004309)
 35:    860.76   0.000156    0.79  0.000057  ( 0.002529 -0.004804 -0.005213)
 36:    883.55   0.000462    2.33  0.000163  (-0.007732 -0.008800  0.005081)
 37:    905.05   0.000339    1.71  0.000117  (-0.004218 -0.006609  0.007443)
 38:    935.80   0.001654    8.36  0.000552  (-0.005879  0.011517 -0.019605)
 39:    941.56   0.006575   33.23  0.002179  (-0.026173  0.027498 -0.027168)
 40:    960.14   0.000831    4.20  0.000270  ( 0.013583 -0.008747 -0.002997)
 41:    983.25   0.000296    1.49  0.000094  (-0.007072  0.002016  0.006304)
 42:    985.90   0.000190    0.96  0.000060  (-0.004326 -0.005784 -0.002832)
 43:    993.17   0.000260    1.31  0.000082  (-0.007259 -0.002314 -0.004849)
 44:   1010.13   0.001249    6.31  0.000386  ( 0.018127 -0.000534  0.007557)
 45:   1015.78   0.001470    7.43  0.000452  ( 0.015928 -0.014063  0.000325)
 46:   1028.88   0.000348    1.76  0.000106  (-0.009492 -0.000268  0.003920)
 47:   1038.11   0.000053    0.27  0.000016  ( 0.002595 -0.002224 -0.002070)
 48:   1052.14   0.000043    0.22  0.000013  (-0.002055 -0.001783  0.002285)
 49:   1064.45   0.001275    6.44  0.000374  ( 0.008953  0.014926 -0.008417)
 50:   1088.37   0.000494    2.50  0.000142  (-0.007861 -0.007314  0.005126)
 51:   1108.22   0.000697    3.52  0.000196  ( 0.013591 -0.003079 -0.001412)
 52:   1126.01   0.000091    0.46  0.000025  ( 0.000380  0.004866  0.001168)
 53:   1153.25   0.000492    2.49  0.000133  (-0.006809  0.009293 -0.000595)
 54:   1160.99   0.000146    0.74  0.000039  ( 0.004591  0.002578 -0.003393)
 55:   1174.36   0.000253    1.28  0.000067  (-0.004438 -0.004973  0.004770)
 56:   1180.14   0.000025    0.12  0.000006  (-0.002037  0.000886 -0.001250)
 57:   1201.31   0.000321    1.62  0.000083  (-0.008192 -0.002979  0.002724)
 58:   1213.69   0.000018    0.09  0.000005  (-0.001731 -0.001235  0.000190)
 59:   1221.39   0.002103   10.63  0.000537  ( 0.017178  0.015490  0.001524)
 60:   1257.08   0.000133    0.67  0.000033  (-0.002680 -0.003975 -0.003153)
 61:   1259.74   0.000149    0.75  0.000037  ( 0.005070 -0.002767 -0.001901)
 62:   1262.23   0.000505    2.55  0.000125  (-0.003057 -0.010222  0.003313)
 63:   1286.46   0.000181    0.91  0.000044  ( 0.003050 -0.003855  0.004442)
 64:   1295.20   0.000193    0.98  0.000047  ( 0.000833  0.006570  0.001646)
 65:   1316.14   0.000350    1.77  0.000083  (-0.001231  0.005232  0.007360)
 66:   1326.42   0.000093    0.47  0.000022  (-0.004318  0.000123  0.001822)
 67:   1337.51   0.000273    1.38  0.000064  ( 0.005223  0.004211 -0.004330)
 68:   1353.55   0.000292    1.48  0.000067  (-0.002985  0.000252 -0.007642)
 69:   1359.91   0.000037    0.18  0.000008  ( 0.002892  0.000121  0.000010)
 70:   1363.98   0.000507    2.56  0.000116  ( 0.001545 -0.010565 -0.001379)
 71:   1376.66   0.000669    3.38  0.000152  (-0.010960  0.005575 -0.000623)
 72:   1393.61   0.000143    0.72  0.000032  ( 0.002207  0.005176  0.000542)
 73:   1404.52   0.000164    0.83  0.000036  ( 0.000791 -0.000518  0.005959)
 74:   1421.40   0.000179    0.90  0.000039  ( 0.004905  0.003110  0.002354)
 75:   1426.75   0.000426    2.15  0.000093  (-0.001190  0.007250  0.006258)
 76:   1445.93   0.002012   10.17  0.000434  (-0.001164 -0.006538  0.019750)
 77:   1451.53   0.001646    8.32  0.000354  ( 0.003413 -0.013152 -0.013013)
 78:   1456.38   0.001076    5.44  0.000231  ( 0.009809 -0.011466 -0.001685)
 79:   1469.38   0.000291    1.47  0.000062  ( 0.004717  0.005826  0.002367)
 80:   1474.17   0.002153   10.88  0.000456  ( 0.001809  0.005374  0.020581)
 81:   1510.47   0.000266    1.35  0.000055  ( 0.006978 -0.002523  0.000046)
 82:   1516.60   0.000687    3.47  0.000141  ( 0.000372 -0.010725  0.005122)
 83:   1518.93   0.001718    8.68  0.000353  ( 0.008311 -0.007308  0.015181)
 84:   1522.20   0.000962    4.86  0.000197  (-0.011374  0.006368 -0.005221)
 85:   1525.57   0.002057   10.39  0.000421  ( 0.004739  0.019023  0.006029)
 86:   1525.97   0.001520    7.68  0.000311  ( 0.012319  0.004927 -0.011611)
 87:   1528.89   0.001098    5.55  0.000224  (-0.011864  0.001881  0.008936)
 88:   1529.29   0.002754   13.92  0.000562  (-0.000505 -0.005392 -0.023079)
 89:   1532.94   0.001650    8.34  0.000336  ( 0.009347  0.014817 -0.005385)
 90:   1546.11   0.001724    8.71  0.000348  (-0.018095  0.003557 -0.002814)
 91:   1586.48   0.000181    0.91  0.000036  (-0.003326 -0.004701 -0.001566)
 92:   1760.65   0.005052   25.53  0.000895  (-0.018744  0.015778  0.017178)
 93:   3068.19   0.001064    5.37  0.000108  ( 0.003134 -0.004930 -0.008605)
 94:   3084.60   0.000800    4.04  0.000081  (-0.001934  0.002468  0.008434)
 95:   3089.50   0.004135   20.90  0.000418  ( 0.006223 -0.016754  0.009911)
 96:   3091.98   0.000777    3.93  0.000078  (-0.006237  0.006171  0.001188)
 97:   3092.36   0.005418   27.38  0.000547  (-0.000552 -0.001684 -0.023316)
 98:   3094.28   0.010309   52.10  0.001040  (-0.022793 -0.010740 -0.020121)
 99:   3095.64   0.019936  100.75  0.002010  (-0.010046  0.043583  0.003050)
100:   3101.67   0.010911   55.14  0.001098  ( 0.026807  0.019115  0.003706)
101:   3114.75   0.005656   28.58  0.000567  ( 0.016576  0.001750 -0.016995)
102:   3140.44   0.008483   42.87  0.000843  ( 0.016869 -0.008683  0.021977)
103:   3151.62   0.003809   19.25  0.000377  ( 0.004109  0.018982 -0.000112)
104:   3156.94   0.004835   24.43  0.000478  (-0.021067 -0.002598  0.005231)
105:   3159.56   0.001519    7.67  0.000150  (-0.000223  0.011681  0.003675)
106:   3169.51   0.005671   28.66  0.000558  ( 0.005376  0.000336 -0.023008)
107:   3174.15   0.000573    2.90  0.000056  ( 0.005272  0.002976 -0.004441)
108:   3175.76   0.007533   38.07  0.000740  ( 0.018184  0.016486 -0.011738)
109:   3176.86   0.003819   19.30  0.000375  (-0.002130  0.000969  0.019227)
110:   3183.81   0.003795   19.18  0.000372  ( 0.017964  0.006668  0.002185)
111:   3187.02   0.002123   10.73  0.000208  (-0.004334  0.001715  0.013645)
112:   3197.57   0.004090   20.67  0.000399  (-0.013905  0.004756 -0.013534)
113:   3198.24   0.002230   11.27  0.000218  ( 0.003255 -0.000462 -0.014380)
114:   3201.10   0.004574   23.11  0.000446  (-0.011240  0.013804  0.011357)
115:   3211.32   0.002959   14.95  0.000288  (-0.009021  0.008269  0.011737)
116:   3301.42   0.001602    8.10  0.000151  (-0.007806 -0.009371 -0.001648)

--------------------------
THERMOCHEMISTRY AT 298.15K
--------------------------

Temperature         ...   298.15 K
Pressure            ...     1.00 atm
Total Mass          ...   204.36 AMU
Quasi RRHO          ...     True
Cut-Off Frequency   ...     1.00 cm^-1

Throughout the following assumptions are being made:
  (1) The electronic state is orbitally nondegenerate
  (2) There are no thermally accessible electronically excited states
  (3) Hindered rotations indicated by low frequency modes are not
      treated as such but are treated as vibrations and this may
      cause some error
  (4) All equations used are the standard statistical mechanics
      equations for an ideal gas
  (5) All vibrations are strictly harmonic

freq.      35.63  E(vib)   ...       0.54
freq.     103.47  E(vib)   ...       0.46
freq.     122.40  E(vib)   ...       0.43
freq.     137.60  E(vib)   ...       0.42
freq.     145.30  E(vib)   ...       0.41
freq.     172.70  E(vib)   ...       0.38
freq.     206.45  E(vib)   ...       0.35
freq.     219.61  E(vib)   ...       0.33
freq.     236.05  E(vib)   ...       0.32
freq.     245.34  E(vib)   ...       0.31
freq.     271.55  E(vib)   ...       0.29
freq.     286.10  E(vib)   ...       0.27
freq.     330.03  E(vib)   ...       0.24
freq.     350.03  E(vib)   ...       0.23
freq.     374.01  E(vib)   ...       0.21
freq.     375.16  E(vib)   ...       0.21
freq.     424.52  E(vib)   ...       0.18
freq.     447.21  E(vib)   ...       0.17
freq.     465.69  E(vib)   ...       0.16
freq.     481.92  E(vib)   ...       0.15
freq.     542.98  E(vib)   ...       0.12
freq.     547.30  E(vib)   ...       0.12
freq.     584.95  E(vib)   ...       0.11
freq.     640.36  E(vib)   ...       0.09
freq.     718.95  E(vib)   ...       0.07
freq.     747.47  E(vib)   ...       0.06
freq.     764.89  E(vib)   ...       0.06
freq.     778.97  E(vib)   ...       0.05
freq.     848.51  E(vib)   ...       0.04
freq.     860.76  E(vib)   ...       0.04
freq.     883.55  E(vib)   ...       0.04
freq.     905.05  E(vib)   ...       0.03
freq.     935.80  E(vib)   ...       0.03
freq.     941.56  E(vib)   ...       0.03
freq.     960.14  E(vib)   ...       0.03
freq.     983.25  E(vib)   ...       0.02
freq.     985.90  E(vib)   ...       0.02
freq.     993.17  E(vib)   ...       0.02
freq.    1010.13  E(vib)   ...       0.02
freq.    1015.78  E(vib)   ...       0.02
freq.    1028.88  E(vib)   ...       0.02
freq.    1038.11  E(vib)   ...       0.02
freq.    1052.14  E(vib)   ...       0.02
freq.    1064.45  E(vib)   ...       0.02
freq.    1088.37  E(vib)   ...       0.02
freq.    1108.22  E(vib)   ...       0.02
freq.    1126.01  E(vib)   ...       0.01
freq.    1153.25  E(vib)   ...       0.01
freq.    1160.99  E(vib)   ...       0.01
freq.    1174.36  E(vib)   ...       0.01
freq.    1180.14  E(vib)   ...       0.01
freq.    1201.31  E(vib)   ...       0.01
freq.    1213.69  E(vib)   ...       0.01
freq.    1221.39  E(vib)   ...       0.01
freq.    1257.08  E(vib)   ...       0.01
freq.    1259.74  E(vib)   ...       0.01
freq.    1262.23  E(vib)   ...       0.01
freq.    1286.46  E(vib)   ...       0.01
freq.    1295.20  E(vib)   ...       0.01
freq.    1316.14  E(vib)   ...       0.01
freq.    1326.42  E(vib)   ...       0.01
freq.    1337.51  E(vib)   ...       0.01
freq.    1353.55  E(vib)   ...       0.01
freq.    1359.91  E(vib)   ...       0.01
freq.    1363.98  E(vib)   ...       0.01
freq.    1376.66  E(vib)   ...       0.01
freq.    1393.61  E(vib)   ...       0.00
freq.    1404.52  E(vib)   ...       0.00
freq.    1421.40  E(vib)   ...       0.00
freq.    1426.75  E(vib)   ...       0.00
freq.    1445.93  E(vib)   ...       0.00
freq.    1451.53  E(vib)   ...       0.00
freq.    1456.38  E(vib)   ...       0.00
freq.    1469.38  E(vib)   ...       0.00
freq.    1474.17  E(vib)   ...       0.00
freq.    1510.47  E(vib)   ...       0.00
freq.    1516.60  E(vib)   ...       0.00
freq.    1518.93  E(vib)   ...       0.00
freq.    1522.20  E(vib)   ...       0.00
freq.    1525.57  E(vib)   ...       0.00
freq.    1525.97  E(vib)   ...       0.00
freq.    1528.89  E(vib)   ...       0.00
freq.    1529.29  E(vib)   ...       0.00
freq.    1532.94  E(vib)   ...       0.00
freq.    1546.11  E(vib)   ...       0.00
freq.    1586.48  E(vib)   ...       0.00
freq.    1760.65  E(vib)   ...       0.00
freq.    3068.19  E(vib)   ...       0.00
freq.    3084.60  E(vib)   ...       0.00
freq.    3089.50  E(vib)   ...       0.00
freq.    3091.98  E(vib)   ...       0.00
freq.    3092.36  E(vib)   ...       0.00
freq.    3094.28  E(vib)   ...       0.00
freq.    3095.64  E(vib)   ...       0.00
freq.    3101.67  E(vib)   ...       0.00
freq.    3114.75  E(vib)   ...       0.00
freq.    3140.44  E(vib)   ...       0.00
freq.    3151.62  E(vib)   ...       0.00
freq.    3156.94  E(vib)   ...       0.00
freq.    3159.56  E(vib)   ...       0.00
freq.    3169.51  E(vib)   ...       0.00
freq.    3174.15  E(vib)   ...       0.00
freq.    3175.76  E(vib)   ...       0.00
freq.    3176.86  E(vib)   ...       0.00
freq.    3183.81  E(vib)   ...       0.00
freq.    3187.02  E(vib)   ...       0.00
freq.    3197.57  E(vib)   ...       0.00
freq.    3198.24  E(vib)   ...       0.00
freq.    3201.10  E(vib)   ...       0.00
freq.    3211.32  E(vib)   ...       0.00
freq.    3301.42  E(vib)   ...       0.00

------------
INNER ENERGY
------------

The inner energy is: U= E(el) + E(ZPE) + E(vib) + E(rot) + E(trans)
    E(el)   - is the total energy from the electronic structure calculation
              = E(kin-el) + E(nuc-el) + E(el-el) + E(nuc-nuc)
    E(ZPE)  - the the zero temperature vibrational energy from the frequency calculation
    E(vib)  - the the finite temperature correction to E(ZPE) due to population
              of excited vibrational states
    E(rot)  - is the rotational thermal energy
    E(trans)- is the translational thermal energy

Summary of contributions to the inner energy U:
Electronic energy                ...    -99.91285300 Eh
Zero point energy                ...      0.36644893 Eh     229.95 kcal/mol
Thermal vibrational correction   ...      0.01182259 Eh       7.42 kcal/mol
Thermal rotational correction    ...      0.00141627 Eh       0.89 kcal/mol
Thermal translational correction ...      0.00141627 Eh       0.89 kcal/mol
-----------------------------------------------------------------------
Total thermal energy                    -99.53174894 Eh

Summary of corrections to the electronic energy:
(perhaps to be used in another calculation)
Total thermal correction                  0.01465513 Eh       9.20 kcal/mol
Non-thermal (ZPE) correction              0.36644893 Eh     229.95 kcal/mol
-----------------------------------------------------------------------
Total correction                          0.38110406 Eh     239.15 kcal/mol

Rotational constants in cm-1:     0.025403     0.019587     0.013015

                             ****ORCA TERMINATED NORMALLY****
TOTAL RUN TIME: 0 days 0 hours 40 minutes 27 seconds 689 msec
