                         Program Version 6.0.1  -  RELEASE   -
|  1> # input to generate an atomic fitting density for N
|  2> # this file is used internally by ORCA
|  3> #
|  4> # atomic ground state (Mult=4): 1s2 2s2 2p3
|  5> #
|  6> ! ROHF def2-SVP def2/J Conv LeanSCF AODIIS SOSCF NoMulliken NoLoewdin NoMayer NoPrintMOs
|  7>
|  8> %output print[p_atomdensfit] 2 end
|  9>
| 10> %scf
| 11>   guess     HCore
| 12>   maxiter    1000
| 13>   maxdisk  500000
| 14>   diismaxeq     8
| 15>   soscfstart 1e-4
| 16>   lshift  1.000000
| 17>   ignoreconv true
| 18>
| 19>   hftyp        rohf
| 20>   rohf_case    sahf
| 21>   rohf_numop   2
| 22>   rohf_norb[1] 3
| 23>   rohf_nel[1]  3
| 24>
| 25> end
| 26>
| 27> %basis
| 28>   NewECP 7
| 29>     N_core 2
| 30>     lmax f
| 31>     s 1
| 32>       1       7.9772320000     38.5338310000  2
| 33>     p 1
| 34>       1      10.1838540000     -2.5508100000  2
| 35>     d 1
| 36>       1      11.5599470000     -2.9955450000  2
| 37>     f 1
| 38>       1       1.0000000000      0.0000000000  2
| 39>   end
| 40>   NewGTO 7
| 41>     s 4
| 42>      1       2.7353785829     -0.8254200487
| 43>      2       2.2198005987      0.7751077295
| 44>      3       0.5927086715      0.6701294533
| 45>      4       0.2274069999      0.3380505615
| 46>     s 2
| 47>      1       0.2804354568      0.4479335244
| 48>      2       0.1053733938      0.5934170514
| 49>     p 4
| 50>      1      19.1045284762      0.0250847888
| 51>      2       4.8310138463      0.1550703404
| 52>      3       1.4549695059      0.4372216820
| 53>      4       0.4947790465      0.5495684116
| 54>     p 2
| 55>      1       0.1785303261      0.7799661624
| 56>      2       0.0686186522      0.2694088263
| 57>   end
| 58>   NewAuxGTO 7
| 59>     S 1
| 60>      1 1310.72 1.0
| 61>     S 1
| 62>      1  655.36 1.0
| 63>     S 1
| 64>      1  327.68 1.0
| 65>     S 1
| 66>      1  163.84 1.0
| 67>     S 1
| 68>      1   81.82 1.0
| 69>     S 1
| 70>      1   40.96 1.0
| 71>     S 1
| 72>      1   20.48 1.0
| 73>     S 1
| 74>      1   10.24 1.0
| 75>     S 1
| 76>      1    5.12 1.0
| 77>     S 1
| 78>      1    2.56 1.0
| 79>     S 1
| 80>      1    1.28 1.0
| 81>     S 1
| 82>      1    0.64 1.0
| 83>     S 1
| 84>      1    0.32 1.0
| 85>     S 1
| 86>      1    0.16 1.0
| 87>     S 1
| 88>      1    0.08 1.0
| 89>     S 1
| 90>      1    0.04 1.0
| 91>     S 1
| 92>      1    0.02 1.0
| 93>     S 1
| 94>      1    0.01 1.0
| 95>   end
| 96> end
| 97>
| 98> * xyz 0 4
| 99> 7  0.0 0.0 0.0
|100> *
|101>
|102>
|103>                          ****END OF INPUT****

CARTESIAN COORDINATES (ANGSTROEM)
---------------------------------
  N      0.000000    0.000000    0.000000

 Total Charge           Charge          ....    0
 Multiplicity           Mult            ....    4
 Number of Electrons    NEL             ....    5
 Basis Dimension        Dim             ....    8

ORBITAL ENERGIES
----------------

  NO   OCC          E(Eh)            E(eV)
   0   2.0000      -0.950532       -25.8653
   1   1.0000      -0.572480       -15.5780
   2   1.0000      -0.572480       -15.5780
   3   1.0000      -0.572480       -15.5780
   4   0.0000       0.534846        14.5539
   5   0.0000       0.534846        14.5539
   6   0.0000       0.534846        14.5539
   7   0.0000       0.626653        17.0521

FINAL SINGLE POINT ENERGY        -9.647663493125

DIPOLE MOMENT
-------------

Method             : SCF
Type of density    : Electron Density
Multiplicity       :   4
Irrep              :   0
Energy             :    -9.6476634931253713 Eh
Relativity type    :
Basis              : AO
                                X                 Y                 Z
Electronic contribution:      0.000000000      -0.000000000      -0.000000000
Nuclear contribution   :      0.000000000       0.000000000       0.000000000
                        -----------------------------------------
Total Dipole Moment    :      0.000000000      -0.000000000      -0.000000000
                        -----------------------------------------
Magnitude (a.u.)       :      0.000000000
Magnitude (Debye)      :      0.000000000

Rotational constants in cm-1:             0.000000             0.000000             0.000000
Rotational constants in MHz :             0.000000             0.000000             0.000000

                             ****ORCA TERMINATED NORMALLY****
TOTAL RUN TIME: 0 days 0 hours 0 minutes 0 seconds 443 msec
