                         Program Version 6.0.1  -  RELEASE   -
|  1> ! wB97X-3c OPT FREQ TightSCF
|  2> %pal
|  3>   nprocs 40
|  4> end
|  5> * xyz 0 1
|  6> C      4.559346     0.477677    -0.071440
|  7> C      3.879857    -0.384748     0.991773
|  8> C      2.347348    -0.301770     0.930525
|  9> C      1.767089    -1.001728    -0.304956
| 10> O      0.343313    -1.041147    -0.231002
| 11> C     -0.472449     0.074504    -0.458300
| 12> O      0.036666     1.166132    -0.833150
| 13> C     -1.939619    -0.058064    -0.320009
| 14> C     -2.528839    -1.294543    -0.641099
| 15> C     -3.914849    -1.456173    -0.599606
| 16> C     -4.732537    -0.387917    -0.235528
| 17> C     -4.166026     0.840521     0.106874
| 18> C     -2.772867     1.017346     0.086963
| 19> N     -2.233633     2.267596     0.537822
| 20> H      4.203526     1.527878    -0.005944
| 21> H      4.356858     0.081013    -1.087733
| 22> H      5.657669     0.466359     0.091353
| 23> H      4.211411    -1.440330     0.883588
| 24> H      4.210804    -0.029728     1.991808
| 25> H      1.935174    -0.793728     1.838330
| 26> H      2.027518     0.762334     0.952060
| 27> H      2.140553    -2.047041    -0.343593
| 28> H      2.080374    -0.488256    -1.239000
| 29> H     -1.916799    -2.132766    -0.951390
| 30> H     -4.356024    -2.409760    -0.859749
| 31> H     -5.807160    -0.514555    -0.208106
| 32> H     -4.814277     1.652695     0.411552
| 33> H     -1.237492     2.368248     0.828811
| 34> H     -2.864935     3.079949     0.718330
| 35> *
| 36>
| 37>                          ****END OF INPUT****
 Total Charge           Charge          ....    0
 Multiplicity           Mult            ....    1
 Number of Electrons    NEL             ....   76
Dispersion correction           -0.034469378
FINAL SINGLE POINT ENERGY      -113.777001678967
Dispersion correction             ... done (  0.1 sec)
Dispersion correction           -0.035260194
FINAL SINGLE POINT ENERGY      -113.802631284270
Dispersion correction             ... done (  0.1 sec)
Dispersion correction           -0.035447515
FINAL SINGLE POINT ENERGY      -113.807006246731
Dispersion correction             ... done (  0.1 sec)
FINAL SINGLE POINT ENERGY      -113.810280938182
FINAL SINGLE POINT ENERGY      -113.812469749509
FINAL SINGLE POINT ENERGY      -113.812473222430
FINAL SINGLE POINT ENERGY      -113.813457422070
FINAL SINGLE POINT ENERGY      -113.813627669972
FINAL SINGLE POINT ENERGY      -113.813693942069
FINAL SINGLE POINT ENERGY      -113.813701595450
FINAL SINGLE POINT ENERGY      -113.813705297051
FINAL SINGLE POINT ENERGY      -113.813708003394
FINAL SINGLE POINT ENERGY      -113.813714261037
FINAL SINGLE POINT ENERGY      -113.813722524806
FINAL SINGLE POINT ENERGY      -113.813737819822
FINAL SINGLE POINT ENERGY      -113.813761520719
FINAL SINGLE POINT ENERGY      -113.813508755310
Dispersion correction             ... done (  0.1 sec)
Dispersion correction           -0.035485777
FINAL SINGLE POINT ENERGY      -113.813807740395
Dispersion correction             ... done (  0.1 sec)
Dispersion correction           -0.035483535
FINAL SINGLE POINT ENERGY      -113.813810460071
Dispersion correction             ... done (  0.1 sec)
                    ***********************HURRAY********************

CARTESIAN COORDINATES (ANGSTROEM)
---------------------------------
  C      4.447245    0.567097    0.166752
  C      3.847668   -0.655473    0.838811
  C      2.327616   -0.654810    0.886709
  C      1.700452   -0.772870   -0.481963
  O      0.278366   -0.887506   -0.390829
  C     -0.421670    0.243264   -0.293754
  O      0.114816    1.330685   -0.298007
  C     -1.872286    0.021331   -0.195882
  C     -2.389997   -1.273353   -0.272714
  C     -3.739113   -1.517787   -0.212358
  C     -4.607360   -0.439105   -0.070605
  C     -4.127496    0.842471    0.013439
  C     -2.751501    1.109683   -0.043332
  N     -2.317913    2.392473    0.081104
  H      4.094790    1.483628    0.640556
  H      4.187458    0.623656   -0.889488
  H      5.534487    0.553861    0.233093
  H      4.196626   -1.561447    0.335735
  H      4.221608   -0.719605    1.861826
  H      1.978392   -1.490587    1.495196
  H      1.971519    0.260475    1.361636
  H      2.019568   -1.688085   -0.977155
  H      1.943239    0.077786   -1.113131
  H     -1.697630   -2.092814   -0.386884
  H     -4.118091   -2.527010   -0.275823
  H     -5.674937   -0.607250   -0.023228
  H     -4.812204    1.671533    0.133114
  H     -1.348992    2.578750   -0.115081
  H     -2.984659    3.131010   -0.028552

 Multiplicity           Mult            ....    1
 Number of Electrons    NEL             ....   76
 Basis Dimension        Dim             ....  257

ORBITAL ENERGIES
----------------

  NO   OCC          E(Eh)            E(eV)
   0   2.0000      -1.241412       -33.7805
   1   2.0000      -1.142892       -31.0997
   2   2.0000      -1.066197       -29.0127
   3   2.0000      -0.990077       -26.9414
   4   2.0000      -0.950615       -25.8676
   5   2.0000      -0.912725       -24.8365
   6   2.0000      -0.873477       -23.7685
   7   2.0000      -0.866087       -23.5674
   8   2.0000      -0.804258       -21.8850
   9   2.0000      -0.763362       -20.7721
  10   2.0000      -0.739092       -20.1117
  11   2.0000      -0.717357       -19.5203
  12   2.0000      -0.690244       -18.7825
  13   2.0000      -0.664745       -18.0886
  14   2.0000      -0.639453       -17.4004
  15   2.0000      -0.626648       -17.0520
  16   2.0000      -0.606866       -16.5137
  17   2.0000      -0.597143       -16.2491
  18   2.0000      -0.585395       -15.9294
  19   2.0000      -0.567983       -15.4556
  20   2.0000      -0.556102       -15.1323
  21   2.0000      -0.548520       -14.9260
  22   2.0000      -0.539810       -14.6890
  23   2.0000      -0.536754       -14.6058
  24   2.0000      -0.519769       -14.1436
  25   2.0000      -0.499600       -13.5948
  26   2.0000      -0.494283       -13.4501
  27   2.0000      -0.482206       -13.1215
  28   2.0000      -0.466907       -12.7052
  29   2.0000      -0.457448       -12.4478
  30   2.0000      -0.453232       -12.3331
  31   2.0000      -0.442813       -12.0496
  32   2.0000      -0.434933       -11.8351
  33   2.0000      -0.431770       -11.7491
  34   2.0000      -0.405658       -11.0385
  35   2.0000      -0.390297       -10.6205
  36   2.0000      -0.356432        -9.6990
  37   2.0000      -0.300975        -8.1899
  38   0.0000       0.032752         0.8912
  39   0.0000       0.081517         2.2182
  40   0.0000       0.085611         2.3296
  41   0.0000       0.090599         2.4653
  42   0.0000       0.096369         2.6223

MULLIKEN ATOMIC CHARGES
-----------------------
   0 C :   -0.065080
   1 C :   -0.076170
   2 C :   -0.042045
   3 C :    0.122349
   4 O :   -0.291343
   5 C :    0.255944
   6 O :   -0.384474
   7 C :   -0.126047
   8 C :    0.052557
   9 C :   -0.021427
  10 C :    0.015315
  11 C :   -0.013109
  12 C :    0.007611
  13 N :   -0.037941
  14 H :    0.033358
  15 H :    0.022152
  16 H :    0.032760
  17 H :    0.025674
  18 H :    0.034794
  19 H :    0.042209
  20 H :    0.051587
  21 H :    0.042437
  22 H :    0.057019
  23 H :    0.028487
  24 H :    0.016503
  25 H :    0.018073
  26 H :    0.011341
  27 H :    0.107438
  28 H :    0.080029
Sum of atomic charges:   -0.0000000

LOEWDIN ATOMIC CHARGES
----------------------
   0 C :   -0.113105
   1 C :   -0.089867
   2 C :   -0.079444
   3 C :   -0.021347
   4 O :   -0.003794
   5 C :   -0.041815
   6 O :   -0.148252
   7 C :   -0.061308
   8 C :   -0.010916
   9 C :   -0.076548
  10 C :   -0.029290
  11 C :   -0.059257
  12 C :   -0.015448
  13 N :    0.077701
  14 H :    0.046098
  15 H :    0.039744
  16 H :    0.045235
  17 H :    0.042716
  18 H :    0.048589
  19 H :    0.049241
  20 H :    0.049589
  21 H :    0.053617
  22 H :    0.046687
  23 H :    0.052081
  24 H :    0.041930
  25 H :    0.050839
  26 H :    0.042531
  27 H :    0.019951
  28 H :    0.043843

  Mayer bond orders larger than 0.100000
B(  0-C ,  1-C ) :   0.9880 B(  0-C , 14-H ) :   0.9928 B(  0-C , 15-H ) :   0.9951
B(  0-C , 16-H ) :   0.9973 B(  1-C ,  2-C ) :   0.9986 B(  1-C , 17-H ) :   0.9949
B(  1-C , 18-H ) :   0.9985 B(  2-C ,  3-C ) :   0.9692 B(  2-C , 19-H ) :   0.9945
B(  2-C , 20-H ) :   0.9889 B(  3-C ,  4-O ) :   0.8850 B(  3-C , 21-H ) :   1.0081
B(  3-C , 22-H ) :   0.9928 B(  4-O ,  5-C ) :   1.1568 B(  5-C ,  6-O ) :   1.8153
B(  5-C ,  7-C ) :   1.1369 B(  7-C ,  8-C ) :   1.3894 B(  7-C , 12-C ) :   1.4031
B(  8-C ,  9-C ) :   1.4926 B(  8-C , 23-H ) :   0.9793 B(  9-C , 10-C ) :   1.3758
B(  9-C , 24-H ) :   0.9885 B( 10-C , 11-C ) :   1.5161 B( 10-C , 25-H ) :   0.9917
B( 11-C , 12-C ) :   1.3499 B( 11-C , 26-H ) :   0.9837 B( 12-C , 13-N ) :   1.2324
B( 13-N , 27-H ) :   1.0005 B( 13-N , 28-H ) :   1.0239

Dispersion correction           -0.035484831
FINAL SINGLE POINT ENERGY      -113.813811099095

DIPOLE MOMENT
-------------

Method             : SCF
Type of density    : Electron Density
Multiplicity       :   1
Irrep              :   0
Energy             :  -113.7783262682525276 Eh
Relativity type    :
Basis              : AO
                                X                 Y                 Z
Electronic contribution:    -23.247811875      -0.628038802      -2.478060190
Nuclear contribution   :     23.234623450       0.565793180       2.412372538
                        -----------------------------------------
Total Dipole Moment    :     -0.013188425      -0.062245621      -0.065687652
                        -----------------------------------------
Magnitude (a.u.)       :      0.091451187
Magnitude (Debye)      :      0.232450443

VIBRATIONAL FREQUENCIES
-----------------------

Scaling factor for frequencies =  1.000000000  (already applied!)

     0:       0.00 cm**-1
     1:       0.00 cm**-1
     2:       0.00 cm**-1
     3:       0.00 cm**-1
     4:       0.00 cm**-1
     5:       0.00 cm**-1
     6:      31.43 cm**-1
     7:      37.84 cm**-1
     8:      45.01 cm**-1
     9:      89.08 cm**-1
    10:     119.92 cm**-1
    11:     140.36 cm**-1
    12:     181.86 cm**-1
    13:     221.70 cm**-1
    14:     243.20 cm**-1
    15:     281.92 cm**-1
    16:     310.48 cm**-1
    17:     323.50 cm**-1
    18:     374.07 cm**-1
    19:     383.31 cm**-1
    20:     426.29 cm**-1
    21:     449.51 cm**-1
    22:     472.36 cm**-1
    23:     546.82 cm**-1
    24:     571.78 cm**-1
    25:     582.54 cm**-1
    26:     600.51 cm**-1
    27:     696.58 cm**-1
    28:     733.91 cm**-1
    29:     769.91 cm**-1
    30:     780.12 cm**-1
    31:     805.42 cm**-1
    32:     832.81 cm**-1
    33:     854.21 cm**-1
    34:     884.77 cm**-1
    35:     889.13 cm**-1
    36:     921.53 cm**-1
    37:     991.55 cm**-1
    38:    1003.47 cm**-1
    39:    1009.05 cm**-1
    40:    1020.32 cm**-1
    41:    1047.28 cm**-1
    42:    1074.53 cm**-1
    43:    1109.07 cm**-1
    44:    1126.48 cm**-1
    45:    1167.94 cm**-1
    46:    1168.39 cm**-1
    47:    1201.46 cm**-1
    48:    1204.85 cm**-1
    49:    1215.55 cm**-1
    50:    1300.07 cm**-1
    51:    1309.08 cm**-1
    52:    1323.93 cm**-1
    53:    1352.17 cm**-1
    54:    1370.60 cm**-1
    55:    1375.86 cm**-1
    56:    1393.86 cm**-1
    57:    1409.27 cm**-1
    58:    1416.00 cm**-1
    59:    1455.78 cm**-1
    60:    1475.44 cm**-1
    61:    1519.71 cm**-1
    62:    1521.03 cm**-1
    63:    1527.45 cm**-1
    64:    1530.91 cm**-1
    65:    1535.70 cm**-1
    66:    1537.41 cm**-1
    67:    1563.42 cm**-1
    68:    1641.67 cm**-1
    69:    1683.99 cm**-1
    70:    1725.15 cm**-1
    71:    1812.93 cm**-1
    72:    3093.81 cm**-1
    73:    3104.52 cm**-1
    74:    3111.17 cm**-1
    75:    3142.77 cm**-1
    76:    3146.14 cm**-1
    77:    3169.00 cm**-1
    78:    3192.63 cm**-1
    79:    3196.43 cm**-1
    80:    3217.03 cm**-1
    81:    3243.93 cm**-1
    82:    3260.45 cm**-1
    83:    3276.06 cm**-1
    84:    3295.99 cm**-1
    85:    3640.28 cm**-1
    86:    3802.78 cm**-1

IR SPECTRUM
-----------

 Mode   freq       eps      Int      T**2         TX        TY        TZ
       cm**-1   L/(mol*cm) km/mol    a.u.
----------------------------------------------------------------------------
  6:     31.43   0.000024    0.12  0.000235  (-0.004708  0.003792  0.014098)
  7:     37.84   0.000025    0.13  0.000209  ( 0.001054 -0.008931  0.011305)
  8:     45.01   0.000285    1.44  0.001979  (-0.003622 -0.001427  0.044310)
  9:     89.08   0.000104    0.53  0.000365  (-0.004526  0.018552  0.000360)
 10:    119.92   0.000047    0.24  0.000122  ( 0.000829 -0.010518  0.003302)
 11:    140.36   0.000436    2.20  0.000969  (-0.004658  0.024107  0.019134)
 12:    181.86   0.000326    1.65  0.000559  ( 0.014646  0.017139  0.007153)
 13:    221.70   0.000949    4.79  0.001335  (-0.005402 -0.017256 -0.031757)
 14:    243.20   0.001634    8.26  0.002096  ( 0.002631  0.012583  0.043942)
 15:    281.92   0.001017    5.14  0.001125  (-0.005555  0.016396  0.028733)
 16:    310.48   0.016408   82.92  0.016492  (-0.005297  0.064327  0.111021)
 17:    323.50   0.018195   91.95  0.017552  (-0.012399 -0.056869 -0.119012)
 18:    374.07   0.007180   36.29  0.005990  (-0.045024  0.055208  0.030252)
 19:    383.31   0.000097    0.49  0.000079  (-0.002346  0.001950 -0.008364)
 20:    426.29   0.000040    0.20  0.000029  ( 0.003964  0.003644 -0.000448)
 21:    449.51   0.000071    0.36  0.000049  (-0.005257 -0.004514 -0.001041)
 22:    472.36   0.000845    4.27  0.000558  ( 0.021887  0.006766  0.005781)
 23:    546.82   0.004967   25.10  0.002835  ( 0.019748 -0.000359  0.049442)
 24:    571.78   0.003363   17.00  0.001836  ( 0.040722 -0.008631 -0.010136)
 25:    582.54   0.000736    3.72  0.000394  (-0.002740 -0.016583 -0.010581)
 26:    600.51   0.007255   36.67  0.003770  ( 0.022546  0.017239  0.054451)
 27:    696.58   0.002363   11.94  0.001059  ( 0.032302  0.003464  0.001765)
 28:    733.91   0.004450   22.49  0.001892  ( 0.002956 -0.004978  0.043110)
 29:    769.91   0.000822    4.15  0.000333  ( 0.004961  0.012714  0.012113)
 30:    780.12   0.013470   68.07  0.005388  (-0.003725  0.003733 -0.073214)
 31:    805.42   0.000670    3.39  0.000260  ( 0.003137 -0.006115  0.014571)
 32:    832.81   0.000579    2.93  0.000217  ( 0.007768  0.000380  0.012507)
 33:    854.21   0.000128    0.65  0.000047  (-0.000301  0.004461 -0.005183)
 34:    884.77   0.001617    8.17  0.000570  (-0.007876 -0.006727 -0.021519)
 35:    889.13   0.001821    9.20  0.000639  (-0.014082 -0.019279  0.008309)
 36:    921.53   0.000313    1.58  0.000106  (-0.006370  0.003497 -0.007285)
 37:    991.55   0.000083    0.42  0.000026  (-0.000750  0.004988  0.000731)
 38:   1003.47   0.000162    0.82  0.000050  ( 0.002986  0.000409 -0.006414)
 39:   1009.05   0.002044   10.33  0.000632  ( 0.024819  0.002641 -0.003041)
 40:   1020.32   0.000010    0.05  0.000003  ( 0.000472  0.000387 -0.001666)
 41:   1047.28   0.000543    2.74  0.000162  (-0.007875 -0.005788 -0.008144)
 42:   1074.53   0.001672    8.45  0.000486  (-0.002607 -0.021490 -0.004118)
 43:   1109.07   0.001098    5.55  0.000309  ( 0.005114  0.016781 -0.001148)
 44:   1126.48   0.000174    0.88  0.000048  ( 0.003546 -0.005931  0.000714)
 45:   1167.94   0.017876   90.34  0.004776  (-0.064809  0.023746  0.003498)
 46:   1168.39   0.006508   32.89  0.001738  (-0.038700  0.013283 -0.008010)
 47:   1201.46   0.019233   97.20  0.004996  ( 0.059271 -0.038401 -0.002811)
 48:   1204.85   0.004928   24.90  0.001276  (-0.032115 -0.015284 -0.003365)
 49:   1215.55   0.009617   48.60  0.002469  (-0.047559  0.014388  0.000205)
 50:   1300.07   0.000312    1.58  0.000075  ( 0.008237 -0.002326 -0.001275)
 51:   1309.08   0.082696  417.91  0.019713  (-0.127094  0.059580  0.003282)
 52:   1323.93   0.000516    2.61  0.000122  ( 0.010077 -0.004448  0.000633)
 53:   1352.17   0.025365  128.18  0.005854  (-0.069293  0.032440  0.000043)
 54:   1370.60   0.002101   10.62  0.000478  ( 0.013696  0.017038  0.000760)
 55:   1375.86   0.016275   82.25  0.003691  (-0.058987  0.013371 -0.005756)
 56:   1393.86   0.014875   75.17  0.003330  (-0.057700 -0.000566 -0.000846)
 57:   1409.27   0.026232  132.56  0.005809  ( 0.069523 -0.031224  0.000528)
 58:   1416.00   0.005761   29.12  0.001270  ( 0.034618 -0.008107  0.002364)
 59:   1455.78   0.001777    8.98  0.000381  (-0.008837 -0.016298  0.006108)
 60:   1475.44   0.002107   10.65  0.000446  ( 0.020101 -0.003901 -0.005137)
 61:   1519.71   0.001415    7.15  0.000291  ( 0.013403 -0.004089 -0.009708)
 62:   1521.03   0.000249    1.26  0.000051  (-0.001378 -0.006942  0.001030)
 63:   1527.45   0.001830    9.25  0.000374  (-0.012105  0.014289  0.004822)
 64:   1530.91   0.004703   23.77  0.000959  (-0.025053 -0.018143  0.001370)
 65:   1535.70   0.003123   15.78  0.000635  ( 0.000039  0.005492  0.024584)
 66:   1537.41   0.003376   17.06  0.000685  ( 0.023698 -0.009816 -0.005224)
 67:   1563.42   0.006582   33.26  0.001314  (-0.020867  0.029039  0.005918)
 68:   1641.67   0.032110  162.27  0.006104  (-0.022551 -0.074703  0.003809)
 69:   1683.99   0.030228  152.76  0.005602  (-0.046253  0.058737  0.003487)
 70:   1725.15   0.016669   84.24  0.003015  (-0.031294 -0.045090 -0.001679)
 71:   1812.93   0.069943  353.47  0.012040  (-0.060396 -0.091601  0.001088)
 72:   3093.81   0.006924   34.99  0.000698  (-0.014989  0.021103 -0.005327)
 73:   3104.52   0.004834   24.43  0.000486  (-0.014618 -0.013994  0.008737)
 74:   3111.17   0.002017   10.19  0.000202  ( 0.005635  0.006679 -0.011223)
 75:   3142.77   0.006914   34.94  0.000687  ( 0.020323 -0.007546 -0.014718)
 76:   3146.14   0.003451   17.44  0.000342  ( 0.001715  0.002461  0.018258)
 77:   3169.00   0.001951    9.86  0.000192  ( 0.002479 -0.013534 -0.001684)
 78:   3192.63   0.004397   22.22  0.000430  ( 0.017908 -0.008955 -0.005377)
 79:   3196.43   0.005111   25.83  0.000499  ( 0.008874  0.008000  0.018873)
 80:   3217.03   0.001359    6.87  0.000132  (-0.000285  0.010207 -0.005247)
 81:   3243.93   0.000892    4.51  0.000086  (-0.001308 -0.009133 -0.000846)
 82:   3260.45   0.001936    9.79  0.000185  (-0.010779  0.008213  0.001308)
 83:   3276.06   0.001048    5.30  0.000100  (-0.008755 -0.004814  0.000061)
 84:   3295.99   0.000669    3.38  0.000063  (-0.005200 -0.006007 -0.000436)
 85:   3640.28   0.022448  113.44  0.001924  (-0.037638 -0.021509  0.006715)
 86:   3802.78   0.020339  102.79  0.001669  (-0.035980  0.019306  0.001323)

--------------------------
THERMOCHEMISTRY AT 298.15K
--------------------------

Temperature         ...   298.15 K
Pressure            ...     1.00 atm
Total Mass          ...   193.25 AMU
Quasi RRHO          ...     True
Cut-Off Frequency   ...     1.00 cm^-1

Throughout the following assumptions are being made:
  (1) The electronic state is orbitally nondegenerate
  (2) There are no thermally accessible electronically excited states
  (3) Hindered rotations indicated by low frequency modes are not
      treated as such but are treated as vibrations and this may
      cause some error
  (4) All equations used are the standard statistical mechanics
      equations for an ideal gas
  (5) All vibrations are strictly harmonic

freq.      31.43  E(vib)   ...       0.55
freq.      37.84  E(vib)   ...       0.54
freq.      45.01  E(vib)   ...       0.53
freq.      89.08  E(vib)   ...       0.47
freq.     119.92  E(vib)   ...       0.44
freq.     140.36  E(vib)   ...       0.41
freq.     181.86  E(vib)   ...       0.37
freq.     221.70  E(vib)   ...       0.33
freq.     243.20  E(vib)   ...       0.31
freq.     281.92  E(vib)   ...       0.28
freq.     310.48  E(vib)   ...       0.26
freq.     323.50  E(vib)   ...       0.25
freq.     374.07  E(vib)   ...       0.21
freq.     383.31  E(vib)   ...       0.20
freq.     426.29  E(vib)   ...       0.18
freq.     449.51  E(vib)   ...       0.17
freq.     472.36  E(vib)   ...       0.15
freq.     546.82  E(vib)   ...       0.12
freq.     571.78  E(vib)   ...       0.11
freq.     582.54  E(vib)   ...       0.11
freq.     600.51  E(vib)   ...       0.10
freq.     696.58  E(vib)   ...       0.07
freq.     733.91  E(vib)   ...       0.06
freq.     769.91  E(vib)   ...       0.05
freq.     780.12  E(vib)   ...       0.05
freq.     805.42  E(vib)   ...       0.05
freq.     832.81  E(vib)   ...       0.04
freq.     854.21  E(vib)   ...       0.04
freq.     884.77  E(vib)   ...       0.04
freq.     889.13  E(vib)   ...       0.04
freq.     921.53  E(vib)   ...       0.03
freq.     991.55  E(vib)   ...       0.02
freq.    1003.47  E(vib)   ...       0.02
freq.    1009.05  E(vib)   ...       0.02
freq.    1020.32  E(vib)   ...       0.02
freq.    1047.28  E(vib)   ...       0.02
freq.    1074.53  E(vib)   ...       0.02
freq.    1109.07  E(vib)   ...       0.02
freq.    1126.48  E(vib)   ...       0.01
freq.    1167.94  E(vib)   ...       0.01
freq.    1168.39  E(vib)   ...       0.01
freq.    1201.46  E(vib)   ...       0.01
freq.    1204.85  E(vib)   ...       0.01
freq.    1215.55  E(vib)   ...       0.01
freq.    1300.07  E(vib)   ...       0.01
freq.    1309.08  E(vib)   ...       0.01
freq.    1323.93  E(vib)   ...       0.01
freq.    1352.17  E(vib)   ...       0.01
freq.    1370.60  E(vib)   ...       0.01
freq.    1375.86  E(vib)   ...       0.01
freq.    1393.86  E(vib)   ...       0.00
freq.    1409.27  E(vib)   ...       0.00
freq.    1416.00  E(vib)   ...       0.00
freq.    1455.78  E(vib)   ...       0.00
freq.    1475.44  E(vib)   ...       0.00
freq.    1519.71  E(vib)   ...       0.00
freq.    1521.03  E(vib)   ...       0.00
freq.    1527.45  E(vib)   ...       0.00
freq.    1530.91  E(vib)   ...       0.00
freq.    1535.70  E(vib)   ...       0.00
freq.    1537.41  E(vib)   ...       0.00
freq.    1563.42  E(vib)   ...       0.00
freq.    1641.67  E(vib)   ...       0.00
freq.    1683.99  E(vib)   ...       0.00
freq.    1725.15  E(vib)   ...       0.00
freq.    1812.93  E(vib)   ...       0.00
freq.    3093.81  E(vib)   ...       0.00
freq.    3104.52  E(vib)   ...       0.00
freq.    3111.17  E(vib)   ...       0.00
freq.    3142.77  E(vib)   ...       0.00
freq.    3146.14  E(vib)   ...       0.00
freq.    3169.00  E(vib)   ...       0.00
freq.    3192.63  E(vib)   ...       0.00
freq.    3196.43  E(vib)   ...       0.00
freq.    3217.03  E(vib)   ...       0.00
freq.    3243.93  E(vib)   ...       0.00
freq.    3260.45  E(vib)   ...       0.00
freq.    3276.06  E(vib)   ...       0.00
freq.    3295.99  E(vib)   ...       0.00
freq.    3640.28  E(vib)   ...       0.00
freq.    3802.78  E(vib)   ...       0.00

------------
INNER ENERGY
------------

The inner energy is: U= E(el) + E(ZPE) + E(vib) + E(rot) + E(trans)
    E(el)   - is the total energy from the electronic structure calculation
              = E(kin-el) + E(nuc-el) + E(el-el) + E(nuc-nuc)
    E(ZPE)  - the the zero temperature vibrational energy from the frequency calculation
    E(vib)  - the the finite temperature correction to E(ZPE) due to population
              of excited vibrational states
    E(rot)  - is the rotational thermal energy
    E(trans)- is the translational thermal energy

Summary of contributions to the inner energy U:
Electronic energy                ...   -113.81381110 Eh
Zero point energy                ...      0.25200234 Eh     158.13 kcal/mol
Thermal vibrational correction   ...      0.01092650 Eh       6.86 kcal/mol
Thermal rotational correction    ...      0.00141627 Eh       0.89 kcal/mol
Thermal translational correction ...      0.00141627 Eh       0.89 kcal/mol
-----------------------------------------------------------------------
Total thermal energy                   -113.54804971 Eh

Summary of corrections to the electronic energy:
(perhaps to be used in another calculation)
Total thermal correction                  0.01375904 Eh       8.63 kcal/mol
Non-thermal (ZPE) correction              0.25200234 Eh     158.13 kcal/mol
-----------------------------------------------------------------------
Total correction                          0.26576139 Eh     166.77 kcal/mol

--------
ENTHALPY
--------

The enthalpy is H = U + kB*T
                kB is Boltzmann's constant
Total thermal energy              ...   -113.54804971 Eh
Thermal Enthalpy correction       ...      0.00094421 Eh       0.59 kcal/mol
-----------------------------------------------------------------------
Total Enthalpy                    ...   -113.54710550 Eh

Note: Only C1 symmetry has been detected, increase convergence thresholds
      if your molecule has a higher symmetry. Symmetry factor of 1.0 is
      used for the rotational entropy correction.

Note: Rotational entropy computed according to Herzberg
Infrared and Raman Spectra, Chapter V,1, Van Nostrand Reinhold, 1945
Point Group:  C1, Symmetry Number:   1
Rotational constants in cm-1:     0.058691     0.010475     0.009212

Vibrational entropy computed according to the QRRHO of S. Grimme
Chem.Eur.J. 2012 18 9955 using a reference frequency of 100.0 cm-1

-------
ENTROPY
-------

                             ****ORCA TERMINATED NORMALLY****
TOTAL RUN TIME: 0 days 0 hours 26 minutes 26 seconds 442 msec
