                         Program Version 6.0.1  -  RELEASE   -
|  1> ! wB97X-3c OPT FREQ TightSCF
|  2> %pal
|  3>   nprocs 40
|  4> end
|  5> * xyz 0 1
|  6> C      4.508302    -0.287958     0.264937
|  7> C      3.214364    -1.027714     0.274042
|  8> O      2.923205    -1.787424    -0.689475
|  9> O      2.317380    -0.833416     1.330287
| 10> C      1.030045    -1.443532     1.384741
| 11> C      0.119893    -0.832344     0.355985
| 12> C     -0.389963    -1.553672    -0.686170
| 13> C     -1.306013    -0.841996    -1.701741
| 14> C     -1.438033     0.676672    -1.334522
| 15> C     -0.003486     1.162988    -1.042845
| 16> C     -0.228123     0.661672     0.397011
| 17> C     -1.753191     0.840941     0.177975
| 18> C     -2.232256     2.273335     0.524210
| 19> C     -2.719836    -0.172986     0.852051
| 20> H      4.400691     0.635850    -0.340528
| 21> H      5.307882    -0.922639    -0.172036
| 22> H      4.795052    -0.012970     1.301528
| 23> H      0.594363    -1.265301     2.389747
| 24> H      1.125230    -2.543150     1.247774
| 25> H     -0.172868    -2.611173    -0.799291
| 26> H     -2.307292    -1.321359    -1.710672
| 27> H     -0.868202    -0.940548    -2.717698
| 28> H     -2.025953     1.301472    -2.041045
| 29> H      0.810670     0.659855    -1.615517
| 30> H      0.100890     2.267733    -1.104818
| 31> H      0.243538     1.264559     1.203135
| 32> H     -2.221546     2.420029     1.625324
| 33> H     -3.270144     2.423472     0.157690
| 34> H     -1.601287     3.066430     0.075055
| 35> H     -2.463748    -1.238723     0.714805
| 36> H     -2.744189     0.010295     1.947224
| 37> H     -3.745373    -0.028399     0.451087
| 38> *
| 39>
| 40>                          ****END OF INPUT****
 Total Charge           Charge          ....    0
 Multiplicity           Mult            ....    1
 Number of Electrons    NEL             ....   78
Dispersion correction           -0.041232448
FINAL SINGLE POINT ENERGY      -111.292984659453
Dispersion correction             ... done (  0.1 sec)
Dispersion correction           -0.041942447
FINAL SINGLE POINT ENERGY      -111.318302146798
Dispersion correction             ... done (  0.1 sec)
Dispersion correction           -0.041965812
FINAL SINGLE POINT ENERGY      -111.322592763442
Dispersion correction             ... done (  0.1 sec)
FINAL SINGLE POINT ENERGY      -111.323160718148
FINAL SINGLE POINT ENERGY      -111.322987397547
FINAL SINGLE POINT ENERGY      -111.323437054882
FINAL SINGLE POINT ENERGY      -111.323456605261
FINAL SINGLE POINT ENERGY      -111.323484185353
FINAL SINGLE POINT ENERGY      -111.323505588383
FINAL SINGLE POINT ENERGY      -111.323540554257
FINAL SINGLE POINT ENERGY      -111.323584507567
FINAL SINGLE POINT ENERGY      -111.323621966430
FINAL SINGLE POINT ENERGY      -111.323649292662
FINAL SINGLE POINT ENERGY      -111.323658047593
Dispersion correction             ... done (  0.1 sec)
Dispersion correction           -0.041780758
FINAL SINGLE POINT ENERGY      -111.323661262498
Dispersion correction             ... done (  0.1 sec)
Dispersion correction           -0.041777330
FINAL SINGLE POINT ENERGY      -111.323662029060
Dispersion correction             ... done (  0.1 sec)
                    ***********************HURRAY********************

CARTESIAN COORDINATES (ANGSTROEM)
---------------------------------
  C      4.472817   -0.312299    0.384245
  C      3.237869   -1.154486    0.348967
  O      3.061727   -2.090982   -0.380491
  O      2.338724   -0.731447    1.245240
  C      1.067004   -1.397494    1.254367
  C      0.145215   -0.807528    0.246513
  C     -0.386111   -1.508894   -0.745932
  C     -1.348167   -0.841361   -1.684816
  C     -1.486491    0.637401   -1.339041
  C     -0.080688    1.217067   -1.101841
  C     -0.209450    0.655300    0.328250
  C     -1.750964    0.834100    0.179751
  C     -2.191548    2.254101    0.501482
  C     -2.682357   -0.123945    0.892733
  H      4.224736    0.702022    0.078970
  H      5.214132   -0.729624   -0.287542
  H      4.862507   -0.265055    1.397966
  H      0.691715   -1.242080    2.264554
  H      1.213489   -2.460218    1.080096
  H     -0.140172   -2.553737   -0.890465
  H     -2.319460   -1.341928   -1.643008
  H     -0.996902   -0.951830   -2.713986
  H     -2.151403    1.153347   -2.033352
  H      0.730929    0.814081   -1.705572
  H     -0.056292    2.301313   -1.141708
  H      0.293454    1.168792    1.147154
  H     -2.158946    2.425205    1.578290
  H     -3.220075    2.412225    0.174067
  H     -1.575946    3.015079    0.028839
  H     -2.419525   -1.166659    0.741471
  H     -2.673025    0.068535    1.966841
  H     -3.706792    0.020996    0.546205

 Multiplicity           Mult            ....    1
 Number of Electrons    NEL             ....   78
 Basis Dimension        Dim             ....  272

ORBITAL ENERGIES
----------------

  NO   OCC          E(Eh)            E(eV)
   0   2.0000      -1.236814       -33.6554
   1   2.0000      -1.140349       -31.0305
   2   2.0000      -1.036954       -28.2169
   3   2.0000      -0.940473       -25.5916
   4   2.0000      -0.908866       -24.7315
   5   2.0000      -0.880722       -23.9657
   6   2.0000      -0.875597       -23.8262
   7   2.0000      -0.821664       -22.3586
   8   2.0000      -0.814555       -22.1652
   9   2.0000      -0.748377       -20.3644
  10   2.0000      -0.735185       -20.0054
  11   2.0000      -0.697312       -18.9748
  12   2.0000      -0.675353       -18.3773
  13   2.0000      -0.628396       -17.0995
  14   2.0000      -0.622074       -16.9275
  15   2.0000      -0.607065       -16.5191
  16   2.0000      -0.595664       -16.2088
  17   2.0000      -0.586716       -15.9653
  18   2.0000      -0.573373       -15.6023
  19   2.0000      -0.557131       -15.1603
  20   2.0000      -0.552179       -15.0256
  21   2.0000      -0.542115       -14.7517
  22   2.0000      -0.529433       -14.4066
  23   2.0000      -0.518959       -14.1216
  24   2.0000      -0.510033       -13.8787
  25   2.0000      -0.506480       -13.7820
  26   2.0000      -0.498831       -13.5739
  27   2.0000      -0.486349       -13.2342
  28   2.0000      -0.481294       -13.0967
  29   2.0000      -0.477238       -12.9863
  30   2.0000      -0.460582       -12.5331
  31   2.0000      -0.453231       -12.3330
  32   2.0000      -0.439155       -11.9500
  33   2.0000      -0.417885       -11.3712
  34   2.0000      -0.400743       -10.9048
  35   2.0000      -0.400115       -10.8877
  36   2.0000      -0.390201       -10.6179
  37   2.0000      -0.379988       -10.3400
  38   2.0000      -0.334748        -9.1089
  39   0.0000       0.078511         2.1364
  40   0.0000       0.087065         2.3692
  41   0.0000       0.096000         2.6123
  42   0.0000       0.096672         2.6306
  43   0.0000       0.100139         2.7249

MULLIKEN ATOMIC CHARGES
-----------------------
   0 C :   -0.060630
   1 C :    0.253235
   2 O :   -0.321118
   3 O :   -0.289605
   4 C :    0.117109
   5 C :   -0.069111
   6 C :    0.006780
   7 C :   -0.056907
   8 C :   -0.028040
   9 C :    0.001270
  10 C :   -0.013119
  11 C :   -0.165939
  12 C :   -0.016226
  13 C :   -0.006322
  14 H :    0.052227
  15 H :    0.054964
  16 H :    0.055141
  17 H :    0.047656
  18 H :    0.046893
  19 H :    0.028832
  20 H :    0.040216
  21 H :    0.046412
  22 H :    0.030827
  23 H :    0.034953
  24 H :    0.025018
  25 H :    0.031306
  26 H :    0.027022
  27 H :    0.027754
  28 H :    0.015330
  29 H :    0.030216
  30 H :    0.025615
  31 H :    0.028243
Sum of atomic charges:   -0.0000000

LOEWDIN ATOMIC CHARGES
----------------------
   0 C :   -0.083770
   1 C :   -0.055063
   2 O :   -0.140361
   3 O :   -0.017201
   4 C :   -0.024064
   5 C :   -0.041184
   6 C :   -0.020040
   7 C :   -0.078207
   8 C :   -0.033522
   9 C :   -0.049635
  10 C :   -0.031145
  11 C :   -0.055488
  12 C :   -0.101998
  13 C :   -0.106734
  14 H :    0.060645
  15 H :    0.061132
  16 H :    0.060875
  17 H :    0.057586
  18 H :    0.055547
  19 H :    0.041514
  20 H :    0.048249
  21 H :    0.052152
  22 H :    0.033545
  23 H :    0.036790
  24 H :    0.033581
  25 H :    0.034982
  26 H :    0.044951
  27 H :    0.045294
  28 H :    0.041189
  29 H :    0.039937
  30 H :    0.044921
  31 H :    0.045525

  Mayer bond orders larger than 0.100000
B(  0-C ,  1-C ) :   1.0407 B(  0-C , 14-H ) :   0.9740 B(  0-C , 15-H ) :   0.9877
B(  0-C , 16-H ) :   0.9746 B(  1-C ,  2-O ) :   1.9394 B(  1-C ,  3-O ) :   1.1374
B(  3-O ,  4-C ) :   0.8731 B(  4-C ,  5-C ) :   1.0312 B(  4-C , 17-H ) :   1.0019
B(  4-C , 18-H ) :   0.9956 B(  5-C ,  6-C ) :   1.9055 B(  5-C , 10-C ) :   1.0190
B(  6-C ,  7-C ) :   1.0252 B(  6-C , 19-H ) :   0.9810 B(  7-C ,  8-C ) :   1.0052
B(  7-C , 20-H ) :   0.9805 B(  7-C , 21-H ) :   0.9824 B(  8-C ,  9-C ) :   0.9791
B(  8-C , 11-C ) :   0.9547 B(  8-C , 22-H ) :   1.0049 B(  9-C , 10-C ) :   0.9733
B(  9-C , 23-H ) :   1.0028 B(  9-C , 24-H ) :   1.0018 B( 10-C , 11-C ) :   0.9521
B( 10-C , 25-H ) :   0.9944 B( 11-C , 12-C ) :   1.0275 B( 11-C , 13-C ) :   1.0189
B( 12-C , 26-H ) :   0.9909 B( 12-C , 27-H ) :   0.9898 B( 12-C , 28-H ) :   0.9907
B( 13-C , 29-H ) :   0.9857 B( 13-C , 30-H ) :   0.9872 B( 13-C , 31-H ) :   0.9853

Dispersion correction           -0.041774242
FINAL SINGLE POINT ENERGY      -111.323662107348

DIPOLE MOMENT
-------------

Method             : SCF
Type of density    : Electron Density
Multiplicity       :   1
Irrep              :   0
Energy             :  -111.2818878651467145 Eh
Relativity type    :
Basis              : AO
                                X                 Y                 Z
Electronic contribution:      6.852194073      -6.274802317      -0.788632255
Nuclear contribution   :     -7.148078105       6.902105058       1.113011626
                        -----------------------------------------
Total Dipole Moment    :     -0.295884032       0.627302741       0.324379371
                        -----------------------------------------
Magnitude (a.u.)       :      0.765687969
Magnitude (Debye)      :      1.946224148

VIBRATIONAL FREQUENCIES
-----------------------

Scaling factor for frequencies =  1.000000000  (already applied!)

     0:       0.00 cm**-1
     1:       0.00 cm**-1
     2:       0.00 cm**-1
     3:       0.00 cm**-1
     4:       0.00 cm**-1
     5:       0.00 cm**-1
     6:      29.67 cm**-1
     7:      43.33 cm**-1
     8:      53.72 cm**-1
     9:      80.05 cm**-1
    10:     114.13 cm**-1
    11:     175.31 cm**-1
    12:     182.57 cm**-1
    13:     211.58 cm**-1
    14:     239.05 cm**-1
    15:     265.29 cm**-1
    16:     299.78 cm**-1
    17:     348.84 cm**-1
    18:     385.83 cm**-1
    19:     399.80 cm**-1
    20:     405.57 cm**-1
    21:     436.26 cm**-1
    22:     465.17 cm**-1
    23:     480.83 cm**-1
    24:     520.00 cm**-1
    25:     614.96 cm**-1
    26:     624.47 cm**-1
    27:     662.05 cm**-1
    28:     696.06 cm**-1
    29:     727.57 cm**-1
    30:     818.07 cm**-1
    31:     838.47 cm**-1
    32:     867.28 cm**-1
    33:     888.82 cm**-1
    34:     901.90 cm**-1
    35:     933.07 cm**-1
    36:     960.88 cm**-1
    37:     978.09 cm**-1
    38:     980.79 cm**-1
    39:    1002.32 cm**-1
    40:    1007.06 cm**-1
    41:    1023.05 cm**-1
    42:    1042.55 cm**-1
    43:    1065.42 cm**-1
    44:    1091.14 cm**-1
    45:    1095.09 cm**-1
    46:    1100.41 cm**-1
    47:    1109.86 cm**-1
    48:    1141.59 cm**-1
    49:    1166.57 cm**-1
    50:    1187.14 cm**-1
    51:    1233.30 cm**-1
    52:    1242.08 cm**-1
    53:    1273.05 cm**-1
    54:    1285.77 cm**-1
    55:    1294.70 cm**-1
    56:    1297.54 cm**-1
    57:    1311.74 cm**-1
    58:    1339.61 cm**-1
    59:    1352.78 cm**-1
    60:    1387.22 cm**-1
    61:    1406.51 cm**-1
    62:    1423.27 cm**-1
    63:    1433.99 cm**-1
    64:    1438.57 cm**-1
    65:    1450.72 cm**-1
    66:    1453.87 cm**-1
    67:    1502.32 cm**-1
    68:    1505.44 cm**-1
    69:    1508.94 cm**-1
    70:    1510.41 cm**-1
    71:    1513.50 cm**-1
    72:    1519.63 cm**-1
    73:    1530.52 cm**-1
    74:    1544.13 cm**-1
    75:    1548.57 cm**-1
    76:    1793.30 cm**-1
    77:    1878.76 cm**-1
    78:    3088.59 cm**-1
    79:    3094.38 cm**-1
    80:    3099.64 cm**-1
    81:    3128.46 cm**-1
    82:    3132.37 cm**-1
    83:    3135.97 cm**-1
    84:    3138.09 cm**-1
    85:    3140.44 cm**-1
    86:    3150.52 cm**-1
    87:    3171.68 cm**-1
    88:    3177.81 cm**-1
    89:    3204.93 cm**-1
    90:    3213.70 cm**-1
    91:    3219.04 cm**-1
    92:    3221.04 cm**-1
    93:    3230.22 cm**-1
    94:    3242.57 cm**-1
    95:    3264.74 cm**-1

IR SPECTRUM
-----------

 Mode   freq       eps      Int      T**2         TX        TY        TZ
       cm**-1   L/(mol*cm) km/mol    a.u.
----------------------------------------------------------------------------
  6:     29.67   0.000174    0.88  0.001827  (-0.005104 -0.025086  0.034236)
  7:     43.33   0.000066    0.33  0.000473  (-0.017075  0.001470  0.013383)
  8:     53.72   0.000609    3.08  0.003538  (-0.035116  0.036923 -0.030692)
  9:     80.05   0.000264    1.34  0.001030  (-0.015697  0.024011 -0.014404)
 10:    114.13   0.000108    0.55  0.000296  ( 0.007768 -0.007058  0.013617)
 11:    175.31   0.000265    1.34  0.000471  ( 0.019812 -0.007161  0.005240)
 12:    182.57   0.000365    1.85  0.000624  (-0.022724  0.010261 -0.001669)
 13:    211.58   0.000225    1.14  0.000332  (-0.015979  0.006596 -0.005716)
 14:    239.05   0.000199    1.00  0.000259  ( 0.013746 -0.007618  0.003528)
 15:    265.29   0.000176    0.89  0.000207  ( 0.010159 -0.003618 -0.009516)
 16:    299.78   0.001047    5.29  0.001090  ( 0.020109 -0.011224 -0.023653)
 17:    348.84   0.000332    1.68  0.000297  ( 0.005857 -0.003636 -0.015799)
 18:    385.83   0.000908    4.59  0.000735  (-0.024729  0.007399  0.008275)
 19:    399.80   0.000087    0.44  0.000068  ( 0.005125  0.000462  0.006461)
 20:    405.57   0.000061    0.31  0.000047  (-0.003604  0.000413  0.005824)
 21:    436.26   0.000050    0.25  0.000036  ( 0.003654 -0.004399 -0.001811)
 22:    465.17   0.001617    8.17  0.001085  ( 0.032015  0.005778 -0.005154)
 23:    480.83   0.000645    3.26  0.000419  ( 0.020399 -0.001627 -0.000239)
 24:    520.00   0.000452    2.28  0.000271  ( 0.002618 -0.009917  0.012884)
 25:    614.96   0.000452    2.28  0.000229  ( 0.014711  0.003443 -0.001004)
 26:    624.47   0.001423    7.19  0.000711  ( 0.003620 -0.020492  0.016670)
 27:    662.05   0.000942    4.76  0.000444  ( 0.020214  0.004893 -0.003415)
 28:    696.06   0.000162    0.82  0.000073  ( 0.002633  0.007895 -0.001835)
 29:    727.57   0.002441   12.34  0.001047  ( 0.004101  0.004051 -0.031839)
 30:    818.07   0.001129    5.71  0.000431  (-0.002052 -0.017919  0.010269)
 31:    838.47   0.002517   12.72  0.000937  (-0.027571 -0.013187  0.001594)
 32:    867.28   0.000368    1.86  0.000132  (-0.006171 -0.007041 -0.006696)
 33:    888.82   0.001280    6.47  0.000449  ( 0.015173 -0.012951 -0.007173)
 34:    901.90   0.001095    5.53  0.000379  ( 0.002303 -0.012204 -0.014988)
 35:    933.07   0.000955    4.83  0.000320  (-0.010991 -0.013659  0.003483)
 36:    960.88   0.000378    1.91  0.000123  ( 0.007259 -0.000182  0.008361)
 37:    978.09   0.000746    3.77  0.000238  ( 0.006584  0.010252  0.009466)
 38:    980.79   0.000704    3.56  0.000224  (-0.002195 -0.013155 -0.006781)
 39:   1002.32   0.001285    6.49  0.000400  (-0.017751  0.001924 -0.009014)
 40:   1007.06   0.000793    4.01  0.000246  ( 0.007995 -0.011068 -0.007710)
 41:   1023.05   0.000671    3.39  0.000205  (-0.012855  0.002609  0.005707)
 42:   1042.55   0.000062    0.31  0.000019  (-0.000712  0.000820 -0.004166)
 43:   1065.42   0.000364    1.84  0.000107  (-0.009754 -0.003398 -0.000066)
 44:   1091.14   0.015996   80.84  0.004575  (-0.065624 -0.010061  0.012924)
 45:   1095.09   0.001923    9.72  0.000548  ( 0.014216 -0.011907  0.014288)
 46:   1100.41   0.009479   47.91  0.002688  ( 0.051084 -0.008326 -0.003066)
 47:   1109.86   0.000054    0.27  0.000015  (-0.001557  0.000618 -0.003510)
 48:   1141.59   0.000287    1.45  0.000079  (-0.001593  0.007730  0.004028)
 49:   1166.57   0.000433    2.19  0.000116  ( 0.000226  0.005799 -0.009069)
 50:   1187.14   0.000969    4.90  0.000255  (-0.009049 -0.008075 -0.010380)
 51:   1233.30   0.000815    4.12  0.000206  (-0.002289  0.002392  0.013972)
 52:   1242.08   0.000389    1.97  0.000098  ( 0.008557 -0.000435  0.004939)
 53:   1273.05   0.000367    1.85  0.000090  (-0.009021 -0.002926 -0.000141)
 54:   1285.77   0.003834   19.38  0.000931  (-0.029060 -0.002500  0.008939)
 55:   1294.70   0.004401   22.24  0.001061  (-0.027467  0.007422  0.015854)
 56:   1297.54   0.010465   52.89  0.002517  ( 0.050010  0.003415 -0.002044)
 57:   1311.74   0.038312  193.61  0.009114  (-0.091731  0.013701  0.022631)
 58:   1339.61   0.021147  106.87  0.004926  (-0.065375  0.011455  0.022830)
 59:   1352.78   0.004819   24.35  0.001112  ( 0.030272 -0.002396 -0.013763)
 60:   1387.22   0.000703    3.55  0.000158  ( 0.011759 -0.003531 -0.002700)
 61:   1406.51   0.000559    2.83  0.000124  ( 0.004389 -0.008292 -0.006005)
 62:   1423.27   0.004929   24.91  0.001081  ( 0.031485  0.006574  0.006792)
 63:   1433.99   0.001161    5.87  0.000253  ( 0.015254 -0.003012  0.003315)
 64:   1438.57   0.003525   17.82  0.000765  (-0.013982 -0.023379  0.004762)
 65:   1450.72   0.005388   27.23  0.001159  ( 0.029457 -0.003702 -0.016658)
 66:   1453.87   0.017229   87.07  0.003698  (-0.055520 -0.007736  0.023574)
 67:   1502.32   0.003207   16.21  0.000666  (-0.005822 -0.018026 -0.017534)
 68:   1505.44   0.001569    7.93  0.000325  ( 0.009169  0.006645  0.014038)
 69:   1508.94   0.002927   14.79  0.000605  ( 0.006620 -0.018002  0.015408)
 70:   1510.41   0.001569    7.93  0.000324  (-0.007315 -0.016443  0.000483)
 71:   1513.50   0.004727   23.89  0.000975  (-0.024743 -0.016514  0.009468)
 72:   1519.63   0.001482    7.49  0.000304  ( 0.009611  0.008913  0.011511)
 73:   1530.52   0.000142    0.72  0.000029  (-0.001339 -0.005218  0.000130)
 74:   1544.13   0.002468   12.47  0.000499  ( 0.000234 -0.008821  0.020518)
 75:   1548.57   0.001414    7.15  0.000285  ( 0.016560  0.003192 -0.000728)
 76:   1793.30   0.000911    4.60  0.000159  (-0.008941  0.007148 -0.005244)
 77:   1878.76   0.050520  255.31  0.008391  (-0.007060  0.072259  0.055858)
 78:   3088.59   0.006751   34.12  0.000682  (-0.009943 -0.015455 -0.018558)
 79:   3094.38   0.004681   23.66  0.000472  (-0.009680 -0.018239  0.006763)
 80:   3099.64   0.010577   53.45  0.001065  ( 0.024140 -0.013550 -0.017278)
 81:   3128.46   0.009728   49.16  0.000970  (-0.027022  0.004408 -0.014856)
 82:   3132.37   0.002257   11.40  0.000225  (-0.009757 -0.002840  0.011025)
 83:   3135.97   0.000359    1.81  0.000036  (-0.004625 -0.003635 -0.001063)
 84:   3138.09   0.002750   13.90  0.000273  ( 0.009433  0.007280 -0.011468)
 85:   3140.44   0.010816   54.66  0.001075  ( 0.003145  0.011628 -0.030491)
 86:   3150.52   0.004451   22.49  0.000441  (-0.013994 -0.013137 -0.008510)
 87:   3171.68   0.000831    4.20  0.000082  (-0.005333 -0.000110 -0.007303)
 88:   3177.81   0.005904   29.84  0.000580  ( 0.014635 -0.000053  0.019121)
 89:   3204.93   0.003044   15.38  0.000296  ( 0.014107 -0.002162 -0.009629)
 90:   3213.70   0.000508    2.57  0.000049  (-0.000588  0.006866  0.001365)
 91:   3219.04   0.001763    8.91  0.000171  (-0.004436  0.011695  0.003809)
 92:   3221.04   0.005860   29.62  0.000568  (-0.001433 -0.023578  0.003128)
 93:   3230.22   0.000113    0.57  0.000011  (-0.002407  0.001188 -0.001937)
 94:   3242.57   0.001476    7.46  0.000142  (-0.002853  0.011570  0.000275)
 95:   3264.74   0.000234    1.18  0.000022  ( 0.004567  0.000155 -0.001211)

--------------------------
THERMOCHEMISTRY AT 298.15K
--------------------------

Temperature         ...   298.15 K
Pressure            ...     1.00 atm
Total Mass          ...   194.27 AMU
Quasi RRHO          ...     True
Cut-Off Frequency   ...     1.00 cm^-1

Throughout the following assumptions are being made:
  (1) The electronic state is orbitally nondegenerate
  (2) There are no thermally accessible electronically excited states
  (3) Hindered rotations indicated by low frequency modes are not
      treated as such but are treated as vibrations and this may
      cause some error
  (4) All equations used are the standard statistical mechanics
      equations for an ideal gas
  (5) All vibrations are strictly harmonic

freq.      29.67  E(vib)   ...       0.55
freq.      43.33  E(vib)   ...       0.53
freq.      53.72  E(vib)   ...       0.52
freq.      80.05  E(vib)   ...       0.49
freq.     114.13  E(vib)   ...       0.44
freq.     175.31  E(vib)   ...       0.38
freq.     182.57  E(vib)   ...       0.37
freq.     211.58  E(vib)   ...       0.34
freq.     239.05  E(vib)   ...       0.32
freq.     265.29  E(vib)   ...       0.29
freq.     299.78  E(vib)   ...       0.26
freq.     348.84  E(vib)   ...       0.23
freq.     385.83  E(vib)   ...       0.20
freq.     399.80  E(vib)   ...       0.19
freq.     405.57  E(vib)   ...       0.19
freq.     436.26  E(vib)   ...       0.17
freq.     465.17  E(vib)   ...       0.16
freq.     480.83  E(vib)   ...       0.15
freq.     520.00  E(vib)   ...       0.13
freq.     614.96  E(vib)   ...       0.10
freq.     624.47  E(vib)   ...       0.09
freq.     662.05  E(vib)   ...       0.08
freq.     696.06  E(vib)   ...       0.07
freq.     727.57  E(vib)   ...       0.06
freq.     818.07  E(vib)   ...       0.05
freq.     838.47  E(vib)   ...       0.04
freq.     867.28  E(vib)   ...       0.04
freq.     888.82  E(vib)   ...       0.04
freq.     901.90  E(vib)   ...       0.03
freq.     933.07  E(vib)   ...       0.03
freq.     960.88  E(vib)   ...       0.03
freq.     978.09  E(vib)   ...       0.03
freq.     980.79  E(vib)   ...       0.02
freq.    1002.32  E(vib)   ...       0.02
freq.    1007.06  E(vib)   ...       0.02
freq.    1023.05  E(vib)   ...       0.02
freq.    1042.55  E(vib)   ...       0.02
freq.    1065.42  E(vib)   ...       0.02
freq.    1091.14  E(vib)   ...       0.02
freq.    1095.09  E(vib)   ...       0.02
freq.    1100.41  E(vib)   ...       0.02
freq.    1109.86  E(vib)   ...       0.02
freq.    1141.59  E(vib)   ...       0.01
freq.    1166.57  E(vib)   ...       0.01
freq.    1187.14  E(vib)   ...       0.01
freq.    1233.30  E(vib)   ...       0.01
freq.    1242.08  E(vib)   ...       0.01
freq.    1273.05  E(vib)   ...       0.01
freq.    1285.77  E(vib)   ...       0.01
freq.    1294.70  E(vib)   ...       0.01
freq.    1297.54  E(vib)   ...       0.01
freq.    1311.74  E(vib)   ...       0.01
freq.    1339.61  E(vib)   ...       0.01
freq.    1352.78  E(vib)   ...       0.01
freq.    1387.22  E(vib)   ...       0.00
freq.    1406.51  E(vib)   ...       0.00
freq.    1423.27  E(vib)   ...       0.00
freq.    1433.99  E(vib)   ...       0.00
freq.    1438.57  E(vib)   ...       0.00
freq.    1450.72  E(vib)   ...       0.00
freq.    1453.87  E(vib)   ...       0.00
freq.    1502.32  E(vib)   ...       0.00
freq.    1505.44  E(vib)   ...       0.00
freq.    1508.94  E(vib)   ...       0.00
freq.    1510.41  E(vib)   ...       0.00
freq.    1513.50  E(vib)   ...       0.00
freq.    1519.63  E(vib)   ...       0.00
freq.    1530.52  E(vib)   ...       0.00
freq.    1544.13  E(vib)   ...       0.00
freq.    1548.57  E(vib)   ...       0.00
freq.    1793.30  E(vib)   ...       0.00
freq.    1878.76  E(vib)   ...       0.00
freq.    3088.59  E(vib)   ...       0.00
freq.    3094.38  E(vib)   ...       0.00
freq.    3099.64  E(vib)   ...       0.00
freq.    3128.46  E(vib)   ...       0.00
freq.    3132.37  E(vib)   ...       0.00
freq.    3135.97  E(vib)   ...       0.00
freq.    3138.09  E(vib)   ...       0.00
freq.    3140.44  E(vib)   ...       0.00
freq.    3150.52  E(vib)   ...       0.00
freq.    3171.68  E(vib)   ...       0.00
freq.    3177.81  E(vib)   ...       0.00
freq.    3204.93  E(vib)   ...       0.00
freq.    3213.70  E(vib)   ...       0.00
freq.    3219.04  E(vib)   ...       0.00
freq.    3221.04  E(vib)   ...       0.00
freq.    3230.22  E(vib)   ...       0.00
freq.    3242.57  E(vib)   ...       0.00
freq.    3264.74  E(vib)   ...       0.00

------------
INNER ENERGY
------------

The inner energy is: U= E(el) + E(ZPE) + E(vib) + E(rot) + E(trans)
    E(el)   - is the total energy from the electronic structure calculation
              = E(kin-el) + E(nuc-el) + E(el-el) + E(nuc-nuc)
    E(ZPE)  - the the zero temperature vibrational energy from the frequency calculation
    E(vib)  - the the finite temperature correction to E(ZPE) due to population
              of excited vibrational states
    E(rot)  - is the rotational thermal energy
    E(trans)- is the translational thermal energy

Summary of contributions to the inner energy U:
Electronic energy                ...   -111.32366211 Eh
Zero point energy                ...      0.28635632 Eh     179.69 kcal/mol
Thermal vibrational correction   ...      0.01107613 Eh       6.95 kcal/mol
Thermal rotational correction    ...      0.00141627 Eh       0.89 kcal/mol
Thermal translational correction ...      0.00141627 Eh       0.89 kcal/mol
-----------------------------------------------------------------------
Total thermal energy                   -111.02339711 Eh

Summary of corrections to the electronic energy:
(perhaps to be used in another calculation)
Total thermal correction                  0.01390868 Eh       8.73 kcal/mol
Non-thermal (ZPE) correction              0.28635632 Eh     179.69 kcal/mol
-----------------------------------------------------------------------
Total correction                          0.30026500 Eh     188.42 kcal/mol

--------
ENTHALPY
--------

The enthalpy is H = U + kB*T
                kB is Boltzmann's constant
Total thermal energy              ...   -111.02339711 Eh
Thermal Enthalpy correction       ...      0.00094421 Eh       0.59 kcal/mol
-----------------------------------------------------------------------
Total Enthalpy                    ...   -111.02245290 Eh

Note: Only C1 symmetry has been detected, increase convergence thresholds
      if your molecule has a higher symmetry. Symmetry factor of 1.0 is
      used for the rotational entropy correction.

Note: Rotational entropy computed according to Herzberg
Infrared and Raman Spectra, Chapter V,1, Van Nostrand Reinhold, 1945
Point Group:  C1, Symmetry Number:   1
Rotational constants in cm-1:     0.046421     0.013816     0.013245

                             ****ORCA TERMINATED NORMALLY****
TOTAL RUN TIME: 0 days 0 hours 26 minutes 37 seconds 740 msec
