                         Program Version 6.0.1  -  RELEASE   -
|  1> ! wB97X-3c OPT FREQ TightSCF
|  2> %pal
|  3>   nprocs 40
|  4> end
|  5> * xyz 0 1
|  6> C     -2.111571    -2.836219     0.297608
|  7> C     -1.901862    -1.408423     0.814668
|  8> C     -3.194324    -0.589466     0.787129
|  9> C     -2.769100     0.856556     0.591044
| 10> C     -1.434803     0.770548    -0.083196
| 11> C     -0.848146     1.815383    -0.721291
| 12> C      0.425540     1.627069    -1.519868
| 13> C      1.620532     1.272099    -0.626708
| 14> C      1.672778    -0.228475    -0.270871
| 15> C      0.520029    -0.660893     0.659633
| 16> C     -0.867926    -0.622351    -0.021070
| 17> C      3.018488    -0.575344     0.357167
| 18> C      3.407110    -0.021997     1.519066
| 19> C      3.942663    -1.554518    -0.320068
| 20> C     -1.482685     3.187494    -0.682852
| 21> H     -1.157216    -3.401655     0.350256
| 22> H     -2.864864    -3.358722     0.924729
| 23> H     -2.465202    -2.827667    -0.755794
| 24> H     -1.572276    -1.468517     1.877895
| 25> H     -3.772892    -0.713149     1.728498
| 26> H     -3.833733    -0.897203    -0.070888
| 27> H     -2.660483     1.371723     1.569869
| 28> H     -3.517621     1.383939    -0.038499
| 29> H      0.270039     0.852453    -2.301762
| 30> H      0.674246     2.562104    -2.066051
| 31> H      1.607425     1.899575     0.291722
| 32> H      2.547309     1.529444    -1.186506
| 33> H      1.575515    -0.805398    -1.216804
| 34> H      0.720735    -1.708743     0.977593
| 35> H      0.506445    -0.035167     1.579749
| 36> H     -0.810452    -1.035442    -1.053131
| 37> H      2.776741     0.687559     2.044672
| 38> H      4.366740    -0.274254     1.960736
| 39> H      4.132518    -2.417513     0.352745
| 40> H      4.907858    -1.057901    -0.555094
| 41> H      3.512274    -1.941335    -1.266805
| 42> H     -2.455927     3.170873    -1.216234
| 43> H     -1.643036     3.500702     0.370436
| 44> H     -0.840862     3.952833    -1.166243
| 45> *
| 46>
| 47>                          ****END OF INPUT****
 Total Charge           Charge          ....    0
 Multiplicity           Mult            ....    1
 Number of Electrons    NEL             ....   84
Dispersion correction           -0.051019470
FINAL SINGLE POINT ENERGY       -99.916003364714
Dispersion correction             ... done (  0.1 sec)
Dispersion correction           -0.051342437
FINAL SINGLE POINT ENERGY       -99.927119008533
Dispersion correction             ... done (  0.1 sec)
Dispersion correction           -0.051380671
FINAL SINGLE POINT ENERGY       -99.928813023306
Dispersion correction             ... done (  0.1 sec)
FINAL SINGLE POINT ENERGY       -99.929731100340
FINAL SINGLE POINT ENERGY       -99.930082411462
FINAL SINGLE POINT ENERGY       -99.930302480467
FINAL SINGLE POINT ENERGY       -99.930577187077
FINAL SINGLE POINT ENERGY       -99.931023902871
FINAL SINGLE POINT ENERGY       -99.931548721318
FINAL SINGLE POINT ENERGY       -99.932185457144
FINAL SINGLE POINT ENERGY       -99.935938952346
FINAL SINGLE POINT ENERGY       -99.936645589941
FINAL SINGLE POINT ENERGY       -99.936997934310
FINAL SINGLE POINT ENERGY       -99.937238344829
FINAL SINGLE POINT ENERGY       -99.937294596267
FINAL SINGLE POINT ENERGY       -99.937310773356
FINAL SINGLE POINT ENERGY       -99.937315812217
Dispersion correction             ... done (  0.1 sec)
Dispersion correction           -0.051593631
FINAL SINGLE POINT ENERGY       -99.937316986612
Dispersion correction             ... done (  0.1 sec)
Dispersion correction           -0.051593762
FINAL SINGLE POINT ENERGY       -99.937317455978
Dispersion correction             ... done (  0.1 sec)
                    ***********************HURRAY********************

CARTESIAN COORDINATES (ANGSTROEM)
---------------------------------
  C     -1.869718   -2.879730    0.305211
  C     -1.849997   -1.428246    0.732346
  C     -3.174190   -0.701991    0.552858
  C     -2.792300    0.767756    0.639990
  C     -1.454223    0.822551   -0.054538
  C     -0.909630    1.879862   -0.645969
  C      0.398446    1.783688   -1.388326
  C      1.603199    1.380627   -0.545036
  C      1.696806   -0.113205   -0.270599
  C      0.549715   -0.637673    0.591251
  C     -0.837452   -0.561657   -0.032820
  C      3.014569   -0.532868    0.339771
  C      3.739907    0.252986    1.124235
  C      3.457549   -1.925668    0.012792
  C     -1.535419    3.239945   -0.634925
  H     -0.894142   -3.350132    0.429415
  H     -2.587422   -3.454615    0.890715
  H     -2.150321   -2.967246   -0.745709
  H     -1.586177   -1.378967    1.794994
  H     -3.923910   -0.999920    1.285699
  H     -3.578515   -0.920393   -0.439329
  H     -2.690919    1.062856    1.688640
  H     -3.534922    1.423746    0.191136
  H      0.296012    1.080082   -2.220847
  H      0.607780    2.751692   -1.844979
  H      1.577743    1.935393    0.395144
  H      2.513951    1.684288   -1.063746
  H      1.627723   -0.620623   -1.240582
  H      0.751875   -1.682021    0.838244
  H      0.545870   -0.095127    1.540142
  H     -0.773743   -0.935943   -1.062940
  H      3.445172    1.266161    1.359295
  H      4.665838   -0.098357    1.560742
  H      4.360377   -2.197795    0.555041
  H      3.658919   -2.016872   -1.055706
  H      2.684282   -2.655990    0.252106
  H     -1.744546    3.577555   -1.652189
  H     -2.460183    3.277763   -0.066723
  H     -0.848000    3.968090   -0.199325

 Multiplicity           Mult            ....    1
 Number of Electrons    NEL             ....   84
 Basis Dimension        Dim             ....  315

ORBITAL ENERGIES
----------------

  NO   OCC          E(Eh)            E(eV)
   0   2.0000      -1.004006       -27.3204
   1   2.0000      -0.969497       -26.3814
   2   2.0000      -0.940968       -25.6051
   3   2.0000      -0.903169       -24.5765
   4   2.0000      -0.875599       -23.8263
   5   2.0000      -0.868345       -23.6289
   6   2.0000      -0.825885       -22.4735
   7   2.0000      -0.816551       -22.2195
   8   2.0000      -0.789089       -21.4722
   9   2.0000      -0.755510       -20.5585
  10   2.0000      -0.739347       -20.1187
  11   2.0000      -0.700774       -19.0690
  12   2.0000      -0.686091       -18.6695
  13   2.0000      -0.638626       -17.3779
  14   2.0000      -0.616784       -16.7836
  15   2.0000      -0.599718       -16.3191
  16   2.0000      -0.595373       -16.2009
  17   2.0000      -0.574033       -15.6202
  18   2.0000      -0.565444       -15.3865
  19   2.0000      -0.553271       -15.0553
  20   2.0000      -0.537547       -14.6274
  21   2.0000      -0.535005       -14.5582
  22   2.0000      -0.529241       -14.4014
  23   2.0000      -0.521721       -14.1967
  24   2.0000      -0.510074       -13.8798
  25   2.0000      -0.505409       -13.7529
  26   2.0000      -0.502889       -13.6843
  27   2.0000      -0.492727       -13.4078
  28   2.0000      -0.481942       -13.1143
  29   2.0000      -0.471058       -12.8181
  30   2.0000      -0.465098       -12.6560
  31   2.0000      -0.460178       -12.5221
  32   2.0000      -0.453914       -12.3516
  33   2.0000      -0.438681       -11.9371
  34   2.0000      -0.430439       -11.7128
  35   2.0000      -0.427041       -11.6204
  36   2.0000      -0.420068       -11.4306
  37   2.0000      -0.416429       -11.3316
  38   2.0000      -0.403912       -10.9910
  39   2.0000      -0.390809       -10.6344
  40   2.0000      -0.343596        -9.3497
  41   2.0000      -0.314927        -8.5696
  42   0.0000       0.085860         2.3364
  43   0.0000       0.087113         2.3705
  44   0.0000       0.090755         2.4696
  45   0.0000       0.096804         2.6342
  46   0.0000       0.100223         2.7272

MULLIKEN ATOMIC CHARGES
-----------------------
   0 C :   -0.030588
   1 C :   -0.082974
   2 C :   -0.022047
   3 C :   -0.057137
   4 C :   -0.008289
   5 C :   -0.079226
   6 C :   -0.047766
   7 C :   -0.016416
   8 C :   -0.093809
   9 C :    0.026589
  10 C :   -0.095755
  11 C :   -0.091413
  12 C :   -0.013319
  13 C :   -0.039129
  14 C :   -0.048918
  15 H :    0.018756
  16 H :    0.029633
  17 H :    0.023644
  18 H :    0.025190
  19 H :    0.033449
  20 H :    0.025049
  21 H :    0.040945
  22 H :    0.043538
  23 H :    0.038214
  24 H :    0.022572
  25 H :    0.031418
  26 H :    0.038985
  27 H :    0.024884
  28 H :    0.008004
  29 H :    0.035710
  30 H :    0.037356
  31 H :    0.016048
  32 H :    0.016831
  33 H :    0.027955
  34 H :    0.040679
  35 H :    0.027522
  36 H :    0.038908
  37 H :    0.020491
  38 H :    0.034415
Sum of atomic charges:   -0.0000000

LOEWDIN ATOMIC CHARGES
----------------------
   0 C :   -0.110239
   1 C :   -0.067540
   2 C :   -0.071458
   3 C :   -0.076168
   4 C :   -0.027634
   5 C :   -0.048963
   6 C :   -0.075779
   7 C :   -0.071000
   8 C :   -0.066664
   9 C :   -0.062383
  10 C :   -0.051267
  11 C :   -0.039319
  12 C :   -0.083349
  13 C :   -0.105494
  14 C :   -0.110610
  15 H :    0.041052
  16 H :    0.045247
  17 H :    0.042164
  18 H :    0.045891
  19 H :    0.041197
  20 H :    0.043892
  21 H :    0.045768
  22 H :    0.043571
  23 H :    0.047222
  24 H :    0.049140
  25 H :    0.041848
  26 H :    0.049579
  27 H :    0.047084
  28 H :    0.041975
  29 H :    0.047503
  30 H :    0.044889
  31 H :    0.030771
  32 H :    0.032059
  33 H :    0.050095
  34 H :    0.049771
  35 H :    0.045375
  36 H :    0.048249
  37 H :    0.044983
  38 H :    0.048541

  Mayer bond orders larger than 0.100000
B(  0-C ,  1-C ) :   1.0164 B(  0-C , 15-H ) :   0.9931 B(  0-C , 16-H ) :   0.9917
B(  0-C , 17-H ) :   0.9902 B(  1-C ,  2-C ) :   0.9858 B(  1-C , 10-C ) :   0.9749
B(  1-C , 18-H ) :   0.9927 B(  2-C ,  3-C ) :   0.9956 B(  2-C , 19-H ) :   0.9990
B(  2-C , 20-H ) :   0.9921 B(  3-C ,  4-C ) :   1.0113 B(  3-C , 21-H ) :   0.9772
B(  3-C , 22-H ) :   0.9899 B(  4-C ,  5-C ) :   1.9131 B(  4-C , 10-C ) :   1.0246
B(  5-C ,  6-C ) :   1.0035 B(  5-C , 14-C ) :   1.0318 B(  6-C ,  7-C ) :   0.9872
B(  6-C , 23-H ) :   0.9811 B(  6-C , 24-H ) :   0.9967 B(  7-C ,  8-C ) :   0.9863
B(  7-C , 25-H ) :   0.9888 B(  7-C , 26-H ) :   0.9944 B(  8-C ,  9-C ) :   0.9676
B(  8-C , 11-C ) :   1.0416 B(  8-C , 27-H ) :   0.9869 B(  9-C , 10-C ) :   0.9742
B(  9-C , 28-H ) :   0.9990 B(  9-C , 29-H ) :   0.9888 B( 10-C , 30-H ) :   0.9769
B( 11-C , 12-C ) :   1.9458 B( 11-C , 13-C ) :   1.0315 B( 12-C , 31-H ) :   0.9869
B( 12-C , 32-H ) :   0.9829 B( 13-C , 33-H ) :   0.9903 B( 13-C , 34-H ) :   0.9783
B( 13-C , 35-H ) :   0.9802 B( 14-C , 36-H ) :   0.9765 B( 14-C , 37-H ) :   0.9899
B( 14-C , 38-H ) :   0.9788

Dispersion correction           -0.051593602
FINAL SINGLE POINT ENERGY       -99.937317580586

DIPOLE MOMENT
-------------

Method             : SCF
Type of density    : Electron Density
Multiplicity       :   1
Irrep              :   0
Energy             :   -99.8857239790700078 Eh
Relativity type    :
Basis              : AO
                                X                 Y                 Z
Electronic contribution:     -0.052357778       3.780315968      -0.132248942
Nuclear contribution   :     -0.107220336      -3.874258134       0.030163326
                        -----------------------------------------
Total Dipole Moment    :     -0.159578114      -0.093942165      -0.102085616
                        -----------------------------------------
Magnitude (a.u.)       :      0.211451597
Magnitude (Debye)      :      0.537467246

VIBRATIONAL FREQUENCIES
-----------------------

Scaling factor for frequencies =  1.000000000  (already applied!)

     0:       0.00 cm**-1
     1:       0.00 cm**-1
     2:       0.00 cm**-1
     3:       0.00 cm**-1
     4:       0.00 cm**-1
     5:       0.00 cm**-1
     6:      45.91 cm**-1
     7:      50.27 cm**-1
     8:      99.09 cm**-1
     9:     131.59 cm**-1
    10:     135.18 cm**-1
    11:     166.14 cm**-1
    12:     174.95 cm**-1
    13:     177.29 cm**-1
    14:     201.33 cm**-1
    15:     217.92 cm**-1
    16:     241.23 cm**-1
    17:     269.35 cm**-1
    18:     294.12 cm**-1
    19:     307.61 cm**-1
    20:     337.53 cm**-1
    21:     368.92 cm**-1
    22:     388.05 cm**-1
    23:     441.60 cm**-1
    24:     466.77 cm**-1
    25:     493.25 cm**-1
    26:     509.77 cm**-1
    27:     530.00 cm**-1
    28:     547.16 cm**-1
    29:     580.35 cm**-1
    30:     597.61 cm**-1
    31:     670.93 cm**-1
    32:     730.23 cm**-1
    33:     748.29 cm**-1
    34:     837.75 cm**-1
    35:     854.00 cm**-1
    36:     876.97 cm**-1
    37:     902.84 cm**-1
    38:     917.06 cm**-1
    39:     937.53 cm**-1
    40:     957.50 cm**-1
    41:     971.99 cm**-1
    42:     977.22 cm**-1
    43:     990.85 cm**-1
    44:    1013.55 cm**-1
    45:    1032.10 cm**-1
    46:    1035.90 cm**-1
    47:    1057.45 cm**-1
    48:    1075.54 cm**-1
    49:    1089.27 cm**-1
    50:    1097.84 cm**-1
    51:    1103.85 cm**-1
    52:    1118.05 cm**-1
    53:    1124.27 cm**-1
    54:    1143.55 cm**-1
    55:    1157.77 cm**-1
    56:    1199.32 cm**-1
    57:    1208.32 cm**-1
    58:    1212.99 cm**-1
    59:    1233.28 cm**-1
    60:    1253.73 cm**-1
    61:    1266.70 cm**-1
    62:    1292.19 cm**-1
    63:    1307.81 cm**-1
    64:    1310.42 cm**-1
    65:    1325.32 cm**-1
    66:    1352.12 cm**-1
    67:    1360.19 cm**-1
    68:    1367.49 cm**-1
    69:    1380.44 cm**-1
    70:    1384.32 cm**-1
    71:    1403.09 cm**-1
    72:    1422.09 cm**-1
    73:    1423.65 cm**-1
    74:    1432.97 cm**-1
    75:    1442.99 cm**-1
    76:    1448.76 cm**-1
    77:    1451.81 cm**-1
    78:    1461.29 cm**-1
    79:    1479.31 cm**-1
    80:    1503.03 cm**-1
    81:    1508.78 cm**-1
    82:    1513.24 cm**-1
    83:    1516.42 cm**-1
    84:    1516.99 cm**-1
    85:    1521.35 cm**-1
    86:    1523.46 cm**-1
    87:    1524.95 cm**-1
    88:    1525.73 cm**-1
    89:    1529.25 cm**-1
    90:    1531.94 cm**-1
    91:    1774.12 cm**-1
    92:    1820.33 cm**-1
    93:    3044.19 cm**-1
    94:    3056.46 cm**-1
    95:    3068.43 cm**-1
    96:    3079.32 cm**-1
    97:    3088.23 cm**-1
    98:    3090.14 cm**-1
    99:    3090.69 cm**-1
   100:    3092.26 cm**-1
   101:    3096.66 cm**-1
   102:    3096.97 cm**-1
   103:    3100.20 cm**-1
   104:    3143.88 cm**-1
   105:    3144.15 cm**-1
   106:    3153.60 cm**-1
   107:    3158.78 cm**-1
   108:    3164.39 cm**-1
   109:    3176.51 cm**-1
   110:    3178.29 cm**-1
   111:    3180.33 cm**-1
   112:    3183.77 cm**-1
   113:    3207.85 cm**-1
   114:    3214.06 cm**-1
   115:    3220.25 cm**-1
   116:    3307.01 cm**-1

IR SPECTRUM
-----------

 Mode   freq       eps      Int      T**2         TX        TY        TZ
       cm**-1   L/(mol*cm) km/mol    a.u.
----------------------------------------------------------------------------
  6:     45.91   0.000018    0.09  0.000121  (-0.004808 -0.003394  0.009292)
  7:     50.27   0.000011    0.06  0.000070  ( 0.007842 -0.001480  0.002577)
  8:     99.09   0.000021    0.11  0.000066  (-0.003948  0.000961 -0.007065)
  9:    131.59   0.000020    0.10  0.000048  ( 0.006399  0.002553  0.000508)
 10:    135.18   0.000023    0.12  0.000053  ( 0.000457  0.000130  0.007289)
 11:    166.14   0.000123    0.62  0.000231  ( 0.009511  0.004665  0.010877)
 12:    174.95   0.000016    0.08  0.000029  ( 0.001399  0.003025 -0.004211)
 13:    177.29   0.000045    0.23  0.000079  (-0.002562 -0.000618  0.008484)
 14:    201.33   0.000015    0.08  0.000023  (-0.000570  0.000165  0.004768)
 15:    217.92   0.000022    0.11  0.000031  (-0.001085 -0.003920  0.003777)
 16:    241.23   0.000003    0.02  0.000004  (-0.001564 -0.001360 -0.000117)
 17:    269.35   0.000091    0.46  0.000106  (-0.009088 -0.001035 -0.004725)
 18:    294.12   0.000222    1.12  0.000235  ( 0.009127  0.005383  0.011094)
 19:    307.61   0.000046    0.23  0.000047  (-0.000660 -0.001393 -0.006658)
 20:    337.53   0.000172    0.87  0.000159  (-0.000069 -0.001165  0.012554)
 21:    368.92   0.000104    0.53  0.000088  (-0.004119  0.003091 -0.007851)
 22:    388.05   0.000067    0.34  0.000054  (-0.002680 -0.003631 -0.005766)
 23:    441.60   0.000111    0.56  0.000078  (-0.006888  0.001938 -0.005212)
 24:    466.77   0.000184    0.93  0.000123  (-0.004777  0.000768  0.009989)
 25:    493.25   0.000581    2.93  0.000367  ( 0.007865 -0.011401  0.013251)
 26:    509.77   0.000126    0.64  0.000077  ( 0.007355 -0.001944 -0.004400)
 27:    530.00   0.000236    1.19  0.000139  ( 0.001125  0.007162  0.009303)
 28:    547.16   0.001239    6.26  0.000707  ( 0.014551  0.008524 -0.020551)
 29:    580.35   0.000112    0.56  0.000060  ( 0.002339  0.001518  0.007225)
 30:    597.61   0.000464    2.34  0.000242  ( 0.012041  0.008963 -0.004113)
 31:    670.93   0.000039    0.20  0.000018  (-0.002625  0.002590  0.002144)
 32:    730.23   0.000230    1.16  0.000098  (-0.000335  0.009147 -0.003794)
 33:    748.29   0.000491    2.48  0.000205  (-0.009523 -0.008489  0.006494)
 34:    837.75   0.000034    0.17  0.000012  ( 0.003237 -0.000732 -0.001214)
 35:    854.00   0.000204    1.03  0.000075  ( 0.004725  0.004478 -0.005672)
 36:    876.97   0.000474    2.40  0.000169  ( 0.010403  0.003482 -0.006962)
 37:    902.84   0.000331    1.67  0.000114  ( 0.003735  0.004906 -0.008736)
 38:    917.06   0.000214    1.08  0.000073  ( 0.008193  0.001766 -0.001642)
 39:    937.53   0.007458   37.69  0.002482  ( 0.024275  0.016990 -0.040056)
 40:    957.50   0.000050    0.25  0.000016  ( 0.000084 -0.001482  0.003742)
 41:    971.99   0.001009    5.10  0.000324  (-0.016865  0.004545  0.004325)
 42:    977.22   0.000338    1.71  0.000108  (-0.010244 -0.000748 -0.001534)
 43:    990.85   0.000396    2.00  0.000125  (-0.003633  0.009246 -0.005117)
 44:   1013.55   0.000173    0.87  0.000053  ( 0.005303  0.001538  0.004757)
 45:   1032.10   0.000568    2.87  0.000172  (-0.012005  0.004223  0.003141)
 46:   1035.90   0.000422    2.13  0.000127  (-0.007079 -0.008201 -0.003118)
 47:   1057.45   0.000160    0.81  0.000047  (-0.004643  0.003512 -0.003640)
 48:   1075.54   0.000182    0.92  0.000053  ( 0.000248  0.004286 -0.005865)
 49:   1089.27   0.000451    2.28  0.000129  ( 0.007413  0.003530 -0.007863)
 50:   1097.84   0.000354    1.79  0.000101  (-0.003815  0.008747 -0.003091)
 51:   1103.85   0.001383    6.99  0.000391  ( 0.000033 -0.019076  0.005211)
 52:   1118.05   0.000279    1.41  0.000078  ( 0.002189  0.007102 -0.004771)
 53:   1124.27   0.000273    1.38  0.000076  (-0.002454  0.004501  0.007035)
 54:   1143.55   0.000122    0.61  0.000033  ( 0.001086 -0.002961 -0.004821)
 55:   1157.77   0.000140    0.71  0.000038  (-0.004518 -0.001254  0.003969)
 56:   1199.32   0.000278    1.40  0.000072  ( 0.008110  0.001999  0.001567)
 57:   1208.32   0.000522    2.64  0.000135  ( 0.009179  0.004999 -0.005052)
 58:   1212.99   0.000927    4.68  0.000238  (-0.014647 -0.001000  0.004780)
 59:   1233.28   0.000186    0.94  0.000047  (-0.000390 -0.006486 -0.002188)
 60:   1253.73   0.000282    1.43  0.000070  (-0.007275 -0.003706 -0.001879)
 61:   1266.70   0.000101    0.51  0.000025  ( 0.004909 -0.000544 -0.000699)
 62:   1292.19   0.000188    0.95  0.000045  ( 0.006553  0.001302  0.000901)
 63:   1307.81   0.000511    2.58  0.000122  (-0.010528  0.003271  0.000560)
 64:   1310.42   0.000205    1.04  0.000049  (-0.000919 -0.006269  0.002956)
 65:   1325.32   0.000262    1.33  0.000062  (-0.002007  0.004738 -0.005942)
 66:   1352.12   0.000001    0.01  0.000000  (-0.000339  0.000173 -0.000435)
 67:   1360.19   0.000279    1.41  0.000064  (-0.004071  0.003628 -0.005845)
 68:   1367.49   0.000415    2.10  0.000095  (-0.009434 -0.001072 -0.002153)
 69:   1380.44   0.000515    2.60  0.000116  (-0.008858 -0.005375  0.002992)
 70:   1384.32   0.000168    0.85  0.000038  ( 0.004630 -0.003819 -0.001386)
 71:   1403.09   0.000132    0.67  0.000029  ( 0.003620  0.003138  0.002529)
 72:   1422.09   0.000114    0.58  0.000025  (-0.001307 -0.002240  0.004282)
 73:   1423.65   0.000104    0.52  0.000023  (-0.004768  0.000004 -0.000048)
 74:   1432.97   0.000298    1.51  0.000065  (-0.001996  0.005813  0.005208)
 75:   1442.99   0.001909    9.65  0.000413  ( 0.010195 -0.017230 -0.003465)
 76:   1448.76   0.001510    7.63  0.000325  ( 0.008110 -0.015960 -0.002183)
 77:   1451.81   0.002101   10.62  0.000452  ( 0.000635 -0.018947 -0.009608)
 78:   1461.29   0.000137    0.69  0.000029  ( 0.003151  0.001319 -0.004188)
 79:   1479.31   0.000553    2.79  0.000117  (-0.010429  0.002591 -0.001085)
 80:   1503.03   0.000083    0.42  0.000017  ( 0.001773  0.003698  0.000684)
 81:   1508.78   0.001157    5.85  0.000239  ( 0.006289 -0.010125 -0.009860)
 82:   1513.24   0.002614   13.21  0.000539  (-0.013232 -0.012981  0.013985)
 83:   1516.42   0.002076   10.49  0.000427  (-0.016188 -0.012826  0.000763)
 84:   1516.99   0.002902   14.67  0.000597  ( 0.003647  0.006321  0.023319)
 85:   1521.35   0.002316   11.71  0.000475  (-0.016508 -0.001518 -0.014155)
 86:   1523.46   0.001032    5.21  0.000211  ( 0.014365  0.001318  0.001808)
 87:   1524.95   0.000660    3.34  0.000135  (-0.005798 -0.001126  0.010011)
 88:   1525.73   0.000256    1.30  0.000052  ( 0.006196  0.002951 -0.002312)
 89:   1529.25   0.003062   15.47  0.000625  (-0.009072  0.005765 -0.022568)
 90:   1531.94   0.001768    8.93  0.000360  (-0.013889  0.005000 -0.011926)
 91:   1774.12   0.006546   33.08  0.001151  ( 0.021170  0.018602  0.018899)
 92:   1820.33   0.000301    1.52  0.000052  ( 0.001543 -0.006472 -0.002701)
 93:   3044.19   0.001758    8.89  0.000180  ( 0.002102 -0.007003 -0.011261)
 94:   3056.46   0.004190   21.18  0.000428  (-0.001673 -0.010681 -0.017634)
 95:   3068.43   0.003816   19.28  0.000388  ( 0.002629  0.004034  0.019101)
 96:   3079.32   0.005925   29.94  0.000600  (-0.002149 -0.001311  0.024374)
 97:   3088.23   0.003927   19.85  0.000397  (-0.010051  0.007443  0.015506)
 98:   3090.14   0.005791   29.26  0.000585  ( 0.001392  0.011211 -0.021382)
 99:   3090.69   0.010552   53.33  0.001065  ( 0.005866 -0.032101 -0.000728)
100:   3092.26   0.003408   17.23  0.000344  ( 0.000123 -0.016046  0.009300)
101:   3096.66   0.014919   75.40  0.001503  ( 0.029470  0.019696  0.015717)
102:   3096.97   0.000211    1.07  0.000021  (-0.000319  0.004581  0.000404)
103:   3100.20   0.005621   28.40  0.000566  ( 0.004803 -0.022742 -0.005051)
104:   3143.88   0.004407   22.27  0.000437  (-0.002668  0.020057  0.005297)
105:   3144.15   0.006011   30.38  0.000597  ( 0.003382  0.024069 -0.002411)
106:   3153.60   0.006138   31.02  0.000607  ( 0.013771 -0.002180 -0.020322)
107:   3158.78   0.002651   13.40  0.000262  ( 0.010302  0.002463  0.012237)
108:   3164.39   0.005985   30.25  0.000590  ( 0.017654  0.001574 -0.016616)
109:   3176.51   0.002968   15.00  0.000292  (-0.009809  0.009490 -0.010264)
110:   3178.29   0.001904    9.62  0.000187  (-0.006311 -0.007657  0.009408)
111:   3180.33   0.006370   32.19  0.000625  ( 0.005602 -0.010385  0.022040)
112:   3183.77   0.004191   21.18  0.000411  (-0.019479 -0.001550  0.005382)
113:   3207.85   0.002371   11.98  0.000231  ( 0.013651 -0.002294  0.006248)
114:   3214.06   0.002292   11.58  0.000223  (-0.011830 -0.003279 -0.008477)
115:   3220.25   0.003042   15.38  0.000295  ( 0.015238 -0.002309 -0.007571)
116:   3307.01   0.001393    7.04  0.000131  ( 0.008463 -0.007594  0.001470)

--------------------------
THERMOCHEMISTRY AT 298.15K
--------------------------

Temperature         ...   298.15 K
Pressure            ...     1.00 atm
Total Mass          ...   204.36 AMU
Quasi RRHO          ...     True
Cut-Off Frequency   ...     1.00 cm^-1

Throughout the following assumptions are being made:
  (1) The electronic state is orbitally nondegenerate
  (2) There are no thermally accessible electronically excited states
  (3) Hindered rotations indicated by low frequency modes are not
      treated as such but are treated as vibrations and this may
      cause some error
  (4) All equations used are the standard statistical mechanics
      equations for an ideal gas
  (5) All vibrations are strictly harmonic

freq.      45.91  E(vib)   ...       0.53
freq.      50.27  E(vib)   ...       0.52
freq.      99.09  E(vib)   ...       0.46
freq.     131.59  E(vib)   ...       0.42
freq.     135.18  E(vib)   ...       0.42
freq.     166.14  E(vib)   ...       0.39
freq.     174.95  E(vib)   ...       0.38
freq.     177.29  E(vib)   ...       0.37
freq.     201.33  E(vib)   ...       0.35
freq.     217.92  E(vib)   ...       0.33
freq.     241.23  E(vib)   ...       0.31
freq.     269.35  E(vib)   ...       0.29
freq.     294.12  E(vib)   ...       0.27
freq.     307.61  E(vib)   ...       0.26
freq.     337.53  E(vib)   ...       0.24
freq.     368.92  E(vib)   ...       0.21
freq.     388.05  E(vib)   ...       0.20
freq.     441.60  E(vib)   ...       0.17
freq.     466.77  E(vib)   ...       0.16
freq.     493.25  E(vib)   ...       0.14
freq.     509.77  E(vib)   ...       0.14
freq.     530.00  E(vib)   ...       0.13
freq.     547.16  E(vib)   ...       0.12
freq.     580.35  E(vib)   ...       0.11
freq.     597.61  E(vib)   ...       0.10
freq.     670.93  E(vib)   ...       0.08
freq.     730.23  E(vib)   ...       0.06
freq.     748.29  E(vib)   ...       0.06
freq.     837.75  E(vib)   ...       0.04
freq.     854.00  E(vib)   ...       0.04
freq.     876.97  E(vib)   ...       0.04
freq.     902.84  E(vib)   ...       0.03
freq.     917.06  E(vib)   ...       0.03
freq.     937.53  E(vib)   ...       0.03
freq.     957.50  E(vib)   ...       0.03
freq.     971.99  E(vib)   ...       0.03
freq.     977.22  E(vib)   ...       0.03
freq.     990.85  E(vib)   ...       0.02
freq.    1013.55  E(vib)   ...       0.02
freq.    1032.10  E(vib)   ...       0.02
freq.    1035.90  E(vib)   ...       0.02
freq.    1057.45  E(vib)   ...       0.02
freq.    1075.54  E(vib)   ...       0.02
freq.    1089.27  E(vib)   ...       0.02
freq.    1097.84  E(vib)   ...       0.02
freq.    1103.85  E(vib)   ...       0.02
freq.    1118.05  E(vib)   ...       0.01
freq.    1124.27  E(vib)   ...       0.01
freq.    1143.55  E(vib)   ...       0.01
freq.    1157.77  E(vib)   ...       0.01
freq.    1199.32  E(vib)   ...       0.01
freq.    1208.32  E(vib)   ...       0.01
freq.    1212.99  E(vib)   ...       0.01
freq.    1233.28  E(vib)   ...       0.01
freq.    1253.73  E(vib)   ...       0.01
freq.    1266.70  E(vib)   ...       0.01
freq.    1292.19  E(vib)   ...       0.01
freq.    1307.81  E(vib)   ...       0.01
freq.    1310.42  E(vib)   ...       0.01
freq.    1325.32  E(vib)   ...       0.01
freq.    1352.12  E(vib)   ...       0.01
freq.    1360.19  E(vib)   ...       0.01
freq.    1367.49  E(vib)   ...       0.01
freq.    1380.44  E(vib)   ...       0.01
freq.    1384.32  E(vib)   ...       0.00
freq.    1403.09  E(vib)   ...       0.00
freq.    1422.09  E(vib)   ...       0.00
freq.    1423.65  E(vib)   ...       0.00
freq.    1432.97  E(vib)   ...       0.00
freq.    1442.99  E(vib)   ...       0.00
freq.    1448.76  E(vib)   ...       0.00
freq.    1451.81  E(vib)   ...       0.00
freq.    1461.29  E(vib)   ...       0.00
freq.    1479.31  E(vib)   ...       0.00
freq.    1503.03  E(vib)   ...       0.00
freq.    1508.78  E(vib)   ...       0.00
freq.    1513.24  E(vib)   ...       0.00
freq.    1516.42  E(vib)   ...       0.00
freq.    1516.99  E(vib)   ...       0.00
freq.    1521.35  E(vib)   ...       0.00
freq.    1523.46  E(vib)   ...       0.00
freq.    1524.95  E(vib)   ...       0.00
freq.    1525.73  E(vib)   ...       0.00
freq.    1529.25  E(vib)   ...       0.00
freq.    1531.94  E(vib)   ...       0.00
freq.    1774.12  E(vib)   ...       0.00
freq.    1820.33  E(vib)   ...       0.00
freq.    3044.19  E(vib)   ...       0.00
freq.    3056.46  E(vib)   ...       0.00
freq.    3068.43  E(vib)   ...       0.00
freq.    3079.32  E(vib)   ...       0.00
freq.    3088.23  E(vib)   ...       0.00
freq.    3090.14  E(vib)   ...       0.00
freq.    3090.69  E(vib)   ...       0.00
freq.    3092.26  E(vib)   ...       0.00
freq.    3096.66  E(vib)   ...       0.00
freq.    3096.97  E(vib)   ...       0.00
freq.    3100.20  E(vib)   ...       0.00
freq.    3143.88  E(vib)   ...       0.00
freq.    3144.15  E(vib)   ...       0.00
freq.    3153.60  E(vib)   ...       0.00
freq.    3158.78  E(vib)   ...       0.00
freq.    3164.39  E(vib)   ...       0.00
freq.    3176.51  E(vib)   ...       0.00
freq.    3178.29  E(vib)   ...       0.00
freq.    3180.33  E(vib)   ...       0.00
freq.    3183.77  E(vib)   ...       0.00
freq.    3207.85  E(vib)   ...       0.00
freq.    3214.06  E(vib)   ...       0.00
freq.    3220.25  E(vib)   ...       0.00
freq.    3307.01  E(vib)   ...       0.00

------------
INNER ENERGY
------------

The inner energy is: U= E(el) + E(ZPE) + E(vib) + E(rot) + E(trans)
    E(el)   - is the total energy from the electronic structure calculation
              = E(kin-el) + E(nuc-el) + E(el-el) + E(nuc-nuc)
    E(ZPE)  - the the zero temperature vibrational energy from the frequency calculation
    E(vib)  - the the finite temperature correction to E(ZPE) due to population
              of excited vibrational states
    E(rot)  - is the rotational thermal energy
    E(trans)- is the translational thermal energy

Summary of contributions to the inner energy U:
Electronic energy                ...    -99.93731758 Eh
Zero point energy                ...      0.36510345 Eh     229.11 kcal/mol
Thermal vibrational correction   ...      0.01262353 Eh       7.92 kcal/mol
Thermal rotational correction    ...      0.00141627 Eh       0.89 kcal/mol
Thermal translational correction ...      0.00141627 Eh       0.89 kcal/mol
-----------------------------------------------------------------------
Total thermal energy                    -99.55675805 Eh

Summary of corrections to the electronic energy:
(perhaps to be used in another calculation)
Total thermal correction                  0.01545607 Eh       9.70 kcal/mol
Non-thermal (ZPE) correction              0.36510345 Eh     229.11 kcal/mol
-----------------------------------------------------------------------
Total correction                          0.38055953 Eh     238.80 kcal/mol

Rotational constants in cm-1:     0.026054     0.015244     0.010530

                             ****ORCA TERMINATED NORMALLY****
TOTAL RUN TIME: 0 days 0 hours 46 minutes 55 seconds 591 msec
