                         Program Version 6.0.1  -  RELEASE   -
|  1> ! wB97X-3c OPT FREQ TightSCF
|  2> %pal
|  3>   nprocs 40
|  4> end
|  5> * xyz 0 1
|  6> C     -3.823918     1.070991     0.772344
|  7> C     -3.005064     0.026352     0.002481
|  8> C     -3.657574    -0.243305    -1.362125
|  9> C     -1.540896     0.501129    -0.139608
| 10> C     -0.609430    -0.596804    -0.686415
| 11> C      0.869844    -0.165162    -0.688685
| 12> C      1.561668    -0.280857     0.694899
| 13> C      1.874082    -1.742948     1.060248
| 14> C      2.827069     0.607429     0.777309
| 15> C      3.930596     0.236835    -0.226038
| 16> O      5.031052     1.090108    -0.065886
| 17> H     -4.869229     0.719193     0.906397
| 18> H     -3.388047     1.235054     1.780993
| 19> H     -3.837740     2.038388     0.225343
| 20> H     -3.023421    -0.916556     0.593043
| 21> H     -3.583289     0.651240    -2.017073
| 22> H     -4.730433    -0.500641    -1.231276
| 23> H     -3.172742    -1.104716    -1.865507
| 24> H     -1.497119     1.390382    -0.806783
| 25> H     -1.177310     0.818378     0.860122
| 26> H     -0.893191    -0.811845    -1.738310
| 27> H     -0.742499    -1.535487    -0.110055
| 28> H      1.416189    -0.796053    -1.423592
| 29> H      0.933558     0.881124    -1.061427
| 30> H      0.871531     0.104708     1.474731
| 31> H      2.475381    -1.787974     1.993186
| 32> H      2.435487    -2.249395     0.247281
| 33> H      0.937014    -2.307627     1.242713
| 34> H      2.532168     1.666952     0.611468
| 35> H      3.245740     0.549059     1.806133
| 36> H      4.273559    -0.802286    -0.044331
| 37> H      3.553361     0.298669    -1.271118
| 38> H      4.783603     1.955666    -0.484859
| 39> *
| 40>
| 41>                          ****END OF INPUT****
 Total Charge           Charge          ....    0
 Multiplicity           Mult            ....    1
 Number of Electrons    NEL             ....   68
Dispersion correction           -0.033008087
FINAL SINGLE POINT ENERGY       -86.331157195822
Dispersion correction             ... done (  0.1 sec)
Dispersion correction           -0.033374515
FINAL SINGLE POINT ENERGY       -86.340300572893
Dispersion correction             ... done (  0.1 sec)
Dispersion correction           -0.033453026
FINAL SINGLE POINT ENERGY       -86.340878417448
Dispersion correction             ... done (  0.1 sec)
FINAL SINGLE POINT ENERGY       -86.341108694974
FINAL SINGLE POINT ENERGY       -86.341178854776
FINAL SINGLE POINT ENERGY       -86.341268863696
FINAL SINGLE POINT ENERGY       -86.341366047124
FINAL SINGLE POINT ENERGY       -86.341471165588
FINAL SINGLE POINT ENERGY       -86.341558997115
FINAL SINGLE POINT ENERGY       -86.341654234734
FINAL SINGLE POINT ENERGY       -86.341671962348
FINAL SINGLE POINT ENERGY       -86.341702071319
FINAL SINGLE POINT ENERGY       -86.341713347641
Dispersion correction             ... done (  0.1 sec)
Dispersion correction           -0.033694764
FINAL SINGLE POINT ENERGY       -86.341716939382
Dispersion correction             ... done (  0.1 sec)
Dispersion correction           -0.033694637
FINAL SINGLE POINT ENERGY       -86.341718237227
Dispersion correction             ... done (  0.1 sec)
                    ***********************HURRAY********************

CARTESIAN COORDINATES (ANGSTROEM)
---------------------------------
  C     -3.834973    0.587796    0.954760
  C     -2.986489   -0.169419   -0.053860
  C     -3.583009   -0.040231   -1.446240
  C     -1.539329    0.308264    0.008206
  C     -0.561063   -0.517480   -0.807882
  C      0.871592   -0.000453   -0.781181
  C      1.523856    0.084311    0.596605
  C      1.557141   -1.264687    1.299868
  C      2.908548    0.729456    0.530205
  C      3.970341   -0.055205   -0.212625
  O      5.230951    0.581825   -0.161694
  H     -4.866455    0.235474    0.949680
  H     -3.446741    0.473156    1.966858
  H     -3.848887    1.654676    0.723377
  H     -2.998865   -1.229087    0.223547
  H     -3.558100    0.999319   -1.779731
  H     -4.623853   -0.364018   -1.453878
  H     -3.050100   -0.639943   -2.181801
  H     -1.495992    1.353442   -0.318384
  H     -1.228709    0.307423    1.055428
  H     -0.882657   -0.542898   -1.850041
  H     -0.589896   -1.554362   -0.463378
  H      1.474947   -0.643190   -1.426583
  H      0.893489    0.994183   -1.236923
  H      0.918522    0.757051    1.209388
  H      2.117160   -1.205372    2.233466
  H      2.023412   -2.031267    0.679608
  H      0.553423   -1.610574    1.542590
  H      2.813354    1.715824    0.064479
  H      3.274116    0.902254    1.544793
  H      4.120605   -1.029965    0.247351
  H      3.677443   -0.227417   -1.251569
  H      5.166217    1.441117   -0.578838

 Multiplicity           Mult            ....    1
 Number of Electrons    NEL             ....   68
 Basis Dimension        Dim             ....  253

ORBITAL ENERGIES
----------------

  NO   OCC          E(Eh)            E(eV)
   0   2.0000      -1.143105       -31.1055
   1   2.0000      -0.971946       -26.4480
   2   2.0000      -0.950348       -25.8603
   3   2.0000      -0.895591       -24.3703
   4   2.0000      -0.849710       -23.1218
   5   2.0000      -0.818354       -22.2685
   6   2.0000      -0.814519       -22.1642
   7   2.0000      -0.775687       -21.1075
   8   2.0000      -0.730699       -19.8833
   9   2.0000      -0.689770       -18.7696
  10   2.0000      -0.671734       -18.2788
  11   2.0000      -0.625226       -17.0133
  12   2.0000      -0.599188       -16.3047
  13   2.0000      -0.587454       -15.9854
  14   2.0000      -0.573429       -15.6038
  15   2.0000      -0.565528       -15.3888
  16   2.0000      -0.548393       -14.9225
  17   2.0000      -0.539233       -14.6733
  18   2.0000      -0.527616       -14.3572
  19   2.0000      -0.509031       -13.8514
  20   2.0000      -0.507537       -13.8108
  21   2.0000      -0.495066       -13.4714
  22   2.0000      -0.492697       -13.4070
  23   2.0000      -0.474058       -12.8998
  24   2.0000      -0.469843       -12.7851
  25   2.0000      -0.458710       -12.4821
  26   2.0000      -0.448655       -12.2085
  27   2.0000      -0.437080       -11.8936
  28   2.0000      -0.427911       -11.6440
  29   2.0000      -0.421765       -11.4768
  30   2.0000      -0.420129       -11.4323
  31   2.0000      -0.413166       -11.2428
  32   2.0000      -0.407980       -11.1017
  33   2.0000      -0.376322       -10.2402
  34   0.0000       0.082766         2.2522
  35   0.0000       0.087455         2.3798
  36   0.0000       0.091329         2.4852
  37   0.0000       0.096873         2.6360
  38   0.0000       0.103160         2.8071

MULLIKEN ATOMIC CHARGES
-----------------------
   0 C :   -0.047334
   1 C :   -0.096245
   2 C :   -0.042961
   3 C :   -0.033275
   4 C :   -0.043167
   5 C :   -0.030277
   6 C :   -0.113138
   7 C :   -0.032980
   8 C :   -0.046177
   9 C :    0.107103
  10 O :   -0.321284
  11 H :    0.026404
  12 H :    0.026714
  13 H :    0.024152
  14 H :    0.027468
  15 H :    0.025234
  16 H :    0.027183
  17 H :    0.022285
  18 H :    0.023546
  19 H :    0.016252
  20 H :    0.029529
  21 H :    0.018831
  22 H :    0.023662
  23 H :    0.022378
  24 H :    0.031814
  25 H :    0.031857
  26 H :    0.024599
  27 H :    0.023314
  28 H :    0.019004
  29 H :    0.039518
  30 H :    0.043539
  31 H :    0.029783
  32 H :    0.142671
Sum of atomic charges:   -0.0000000

LOEWDIN ATOMIC CHARGES
----------------------
   0 C :   -0.109921
   1 C :   -0.083927
   2 C :   -0.108856
   3 C :   -0.078964
   4 C :   -0.080736
   5 C :   -0.078803
   6 C :   -0.076424
   7 C :   -0.107154
   8 C :   -0.082971
   9 C :   -0.046157
  10 O :   -0.075666
  11 H :    0.043229
  12 H :    0.042867
  13 H :    0.042701
  14 H :    0.043829
  15 H :    0.042655
  16 H :    0.044490
  17 H :    0.039443
  18 H :    0.042824
  19 H :    0.040646
  20 H :    0.043328
  21 H :    0.040361
  22 H :    0.041558
  23 H :    0.044345
  24 H :    0.045689
  25 H :    0.046410
  26 H :    0.041233
  27 H :    0.042421
  28 H :    0.040926
  29 H :    0.049146
  30 H :    0.051858
  31 H :    0.035552
  32 H :    0.024067

  Mayer bond orders larger than 0.100000
B(  0-C ,  1-C ) :   1.0059 B(  0-C , 11-H ) :   0.9947 B(  0-C , 12-H ) :   0.9957
B(  0-C , 13-H ) :   0.9904 B(  1-C ,  2-C ) :   0.9936 B(  1-C ,  3-C ) :   0.9883
B(  1-C , 14-H ) :   0.9942 B(  2-C , 15-H ) :   0.9901 B(  2-C , 16-H ) :   0.9963
B(  2-C , 17-H ) :   0.9972 B(  3-C ,  4-C ) :   0.9722 B(  3-C , 18-H ) :   0.9934
B(  3-C , 19-H ) :   0.9988 B(  4-C ,  5-C ) :   1.0112 B(  4-C , 20-H ) :   0.9969
B(  4-C , 21-H ) :   0.9969 B(  5-C ,  6-C ) :   0.9670 B(  5-C , 22-H ) :   0.9935
B(  5-C , 23-H ) :   0.9988 B(  6-C ,  7-C ) :   0.9900 B(  6-C ,  8-C ) :   1.0198
B(  6-C , 24-H ) :   0.9967 B(  7-C , 25-H ) :   0.9937 B(  7-C , 26-H ) :   0.9893
B(  7-C , 27-H ) :   0.9969 B(  8-C ,  9-C ) :   0.9722 B(  8-C , 28-H ) :   0.9949
B(  8-C , 29-H ) :   0.9916 B(  9-C , 10-O ) :   0.9489 B(  9-C , 30-H ) :   1.0022
B(  9-C , 31-H ) :   0.9962 B( 10-O , 32-H ) :   1.0700

Dispersion correction           -0.033695374
FINAL SINGLE POINT ENERGY       -86.341718617807

DIPOLE MOMENT
-------------

Method             : SCF
Type of density    : Electron Density
Multiplicity       :   1
Irrep              :   0
Energy             :   -86.3080232440601236 Eh
Relativity type    :
Basis              : AO
                                X                 Y                 Z
Electronic contribution:      8.075398111       0.699491404      -0.189344584
Nuclear contribution   :     -8.775524605      -0.481589210      -0.033500847
                        -----------------------------------------
Total Dipole Moment    :     -0.700126494       0.217902194      -0.222845431
                        -----------------------------------------
Magnitude (a.u.)       :      0.766367118
Magnitude (Debye)      :      1.947950408

VIBRATIONAL FREQUENCIES
-----------------------

Scaling factor for frequencies =  1.000000000  (already applied!)

     0:       0.00 cm**-1
     1:       0.00 cm**-1
     2:       0.00 cm**-1
     3:       0.00 cm**-1
     4:       0.00 cm**-1
     5:       0.00 cm**-1
     6:      30.91 cm**-1
     7:      33.52 cm**-1
     8:      69.39 cm**-1
     9:      75.60 cm**-1
    10:     104.91 cm**-1
    11:     116.55 cm**-1
    12:     186.43 cm**-1
    13:     209.17 cm**-1
    14:     226.29 cm**-1
    15:     234.39 cm**-1
    16:     257.91 cm**-1
    17:     263.26 cm**-1
    18:     278.76 cm**-1
    19:     305.77 cm**-1
    20:     370.54 cm**-1
    21:     389.34 cm**-1
    22:     397.98 cm**-1
    23:     436.50 cm**-1
    24:     456.08 cm**-1
    25:     496.53 cm**-1
    26:     618.80 cm**-1
    27:     752.91 cm**-1
    28:     795.31 cm**-1
    29:     836.10 cm**-1
    30:     856.54 cm**-1
    31:     888.17 cm**-1
    32:     949.51 cm**-1
    33:     957.20 cm**-1
    34:     981.53 cm**-1
    35:     992.74 cm**-1
    36:    1001.38 cm**-1
    37:    1015.41 cm**-1
    38:    1032.84 cm**-1
    39:    1050.92 cm**-1
    40:    1103.34 cm**-1
    41:    1120.59 cm**-1
    42:    1129.82 cm**-1
    43:    1138.14 cm**-1
    44:    1150.36 cm**-1
    45:    1187.69 cm**-1
    46:    1222.04 cm**-1
    47:    1227.06 cm**-1
    48:    1243.96 cm**-1
    49:    1268.92 cm**-1
    50:    1291.38 cm**-1
    51:    1332.59 cm**-1
    52:    1336.63 cm**-1
    53:    1355.19 cm**-1
    54:    1361.57 cm**-1
    55:    1381.13 cm**-1
    56:    1400.02 cm**-1
    57:    1407.61 cm**-1
    58:    1412.68 cm**-1
    59:    1417.29 cm**-1
    60:    1441.65 cm**-1
    61:    1447.61 cm**-1
    62:    1451.75 cm**-1
    63:    1455.40 cm**-1
    64:    1460.02 cm**-1
    65:    1472.87 cm**-1
    66:    1506.31 cm**-1
    67:    1512.99 cm**-1
    68:    1518.53 cm**-1
    69:    1519.51 cm**-1
    70:    1524.94 cm**-1
    71:    1527.50 cm**-1
    72:    1531.41 cm**-1
    73:    1534.45 cm**-1
    74:    1541.35 cm**-1
    75:    1543.96 cm**-1
    76:    1550.07 cm**-1
    77:    3067.75 cm**-1
    78:    3074.37 cm**-1
    79:    3076.09 cm**-1
    80:    3079.44 cm**-1
    81:    3090.16 cm**-1
    82:    3093.82 cm**-1
    83:    3095.14 cm**-1
    84:    3096.30 cm**-1
    85:    3098.40 cm**-1
    86:    3100.48 cm**-1
    87:    3127.19 cm**-1
    88:    3136.91 cm**-1
    89:    3138.41 cm**-1
    90:    3152.70 cm**-1
    91:    3176.15 cm**-1
    92:    3179.67 cm**-1
    93:    3180.96 cm**-1
    94:    3186.44 cm**-1
    95:    3186.85 cm**-1
    96:    3190.78 cm**-1
    97:    3197.86 cm**-1
    98:    3962.44 cm**-1

IR SPECTRUM
-----------

 Mode   freq       eps      Int      T**2         TX        TY        TZ
       cm**-1   L/(mol*cm) km/mol    a.u.
----------------------------------------------------------------------------
  6:     30.91   0.000067    0.34  0.000678  (-0.015097 -0.013991  0.015932)
  7:     33.52   0.000051    0.26  0.000475  (-0.000627 -0.012501 -0.017856)
  8:     69.39   0.000142    0.72  0.000639  ( 0.000181 -0.015939 -0.019630)
  9:     75.60   0.000877    4.43  0.003620  ( 0.020540  0.055320  0.011758)
 10:    104.91   0.000127    0.64  0.000379  (-0.008652 -0.004024  0.016961)
 11:    116.55   0.000030    0.15  0.000081  (-0.006886 -0.000072  0.005831)
 12:    186.43   0.000106    0.54  0.000178  ( 0.011855  0.004708 -0.003852)
 13:    209.17   0.000189    0.96  0.000282  ( 0.008624 -0.000316 -0.014421)
 14:    226.29   0.000285    1.44  0.000393  (-0.010686 -0.000675  0.016689)
 15:    234.39   0.000190    0.96  0.000252  (-0.007721  0.000229  0.013882)
 16:    257.91   0.000141    0.71  0.000170  (-0.004195  0.002571  0.012077)
 17:    263.26   0.020512  103.66  0.024314  (-0.059264  0.043907  0.137384)
 18:    278.76   0.000042    0.21  0.000047  ( 0.002825 -0.002715 -0.005655)
 19:    305.77   0.002506   12.66  0.002557  ( 0.022239 -0.019920 -0.040814)
 20:    370.54   0.001599    8.08  0.001347  (-0.013431  0.019162  0.028271)
 21:    389.34   0.000039    0.20  0.000031  (-0.005580 -0.000418  0.000315)
 22:    397.98   0.000469    2.37  0.000368  ( 0.003211 -0.011454 -0.015035)
 23:    436.50   0.000611    3.09  0.000437  ( 0.012414 -0.008359 -0.014587)
 24:    456.08   0.000105    0.53  0.000072  (-0.005853  0.006135 -0.000353)
 25:    496.53   0.000004    0.02  0.000003  (-0.000258  0.001046  0.001270)
 26:    618.80   0.000106    0.54  0.000054  (-0.001149  0.004600 -0.005582)
 27:    752.91   0.000748    3.78  0.000310  (-0.011802  0.009006 -0.009472)
 28:    795.31   0.000810    4.09  0.000318  ( 0.011624  0.000255  0.013510)
 29:    836.10   0.000139    0.70  0.000052  (-0.002406  0.003044  0.006079)
 30:    856.54   0.000191    0.97  0.000070  ( 0.003552  0.007507  0.000827)
 31:    888.17   0.000052    0.26  0.000018  (-0.002406 -0.001917 -0.002989)
 32:    949.51   0.000185    0.93  0.000061  ( 0.003561 -0.001508 -0.006765)
 33:    957.20   0.000243    1.23  0.000079  (-0.005465  0.004162  0.005657)
 34:    981.53   0.000089    0.45  0.000028  (-0.003029  0.001437 -0.004132)
 35:    992.74   0.000638    3.22  0.000201  (-0.013415 -0.003857  0.002396)
 36:   1001.38   0.001289    6.51  0.000402  ( 0.018317  0.008015  0.001416)
 37:   1015.41   0.006015   30.40  0.001849  ( 0.038944  0.018061  0.002422)
 38:   1032.84   0.000286    1.44  0.000086  ( 0.006750 -0.003946  0.005021)
 39:   1050.92   0.000423    2.14  0.000125  (-0.001661 -0.007334 -0.008302)
 40:   1103.34   0.000282    1.42  0.000080  (-0.006516 -0.005193  0.003203)
 41:   1120.59   0.024126  121.92  0.006719  (-0.077764 -0.025292  0.005623)
 42:   1129.82   0.002553   12.90  0.000705  (-0.024895 -0.009201 -0.000928)
 43:   1138.14   0.001410    7.13  0.000387  ( 0.018967  0.001169 -0.005060)
 44:   1150.36   0.001014    5.12  0.000275  ( 0.015351  0.005989 -0.001897)
 45:   1187.69   0.000444    2.24  0.000117  ( 0.008948 -0.000247 -0.006039)
 46:   1222.04   0.000423    2.14  0.000108  ( 0.008417  0.005066  0.003408)
 47:   1227.06   0.000784    3.96  0.000199  ( 0.013903  0.002449  0.000224)
 48:   1243.96   0.003367   17.01  0.000845  ( 0.027694  0.006604  0.005834)
 49:   1268.92   0.000473    2.39  0.000116  ( 0.009617  0.001671 -0.004576)
 50:   1291.38   0.001619    8.18  0.000391  (-0.019562 -0.002045  0.002080)
 51:   1332.59   0.000320    1.62  0.000075  (-0.008181 -0.002152 -0.001840)
 52:   1336.63   0.000079    0.40  0.000018  ( 0.001037 -0.004113  0.000635)
 53:   1355.19   0.000604    3.05  0.000139  ( 0.009819  0.005096  0.004099)
 54:   1361.57   0.000070    0.35  0.000016  ( 0.002233  0.001222 -0.003101)
 55:   1381.13   0.000278    1.41  0.000063  ( 0.007522  0.002416 -0.000698)
 56:   1400.02   0.000028    0.14  0.000006  ( 0.000277 -0.002426  0.000445)
 57:   1407.61   0.000496    2.51  0.000110  (-0.010468 -0.000194  0.000598)
 58:   1412.68   0.003655   18.47  0.000807  ( 0.027856  0.004162  0.003750)
 59:   1417.29   0.000041    0.21  0.000009  ( 0.000005 -0.002518 -0.001620)
 60:   1441.65   0.003145   15.89  0.000681  (-0.000638  0.006691  0.025210)
 61:   1447.61   0.001157    5.85  0.000249  ( 0.006625 -0.012934  0.006178)
 62:   1451.75   0.002190   11.07  0.000471  ( 0.021627  0.001298 -0.001176)
 63:   1455.40   0.002353   11.89  0.000504  ( 0.001021 -0.020559  0.008982)
 64:   1460.02   0.001612    8.14  0.000344  ( 0.009225  0.011139 -0.011631)
 65:   1472.87   0.002630   13.29  0.000557  ( 0.022750  0.004203  0.004697)
 66:   1506.31   0.000111    0.56  0.000023  (-0.002215 -0.004050 -0.001330)
 67:   1512.99   0.000089    0.45  0.000018  (-0.003559 -0.001000  0.002151)
 68:   1518.53   0.000056    0.28  0.000012  (-0.001803 -0.002689  0.001040)
 69:   1519.51   0.000718    3.63  0.000147  (-0.003334 -0.008647  0.007846)
 70:   1524.94   0.000217    1.10  0.000045  ( 0.000602 -0.005254 -0.004067)
 71:   1527.50   0.003175   16.05  0.000649  ( 0.006924  0.013702  0.020323)
 72:   1531.41   0.001999   10.10  0.000407  ( 0.017002  0.001879 -0.010714)
 73:   1534.45   0.001304    6.59  0.000265  ( 0.012437 -0.009829  0.003739)
 74:   1541.35   0.003840   19.40  0.000777  (-0.013700 -0.023849 -0.004575)
 75:   1543.96   0.001022    5.16  0.000207  ( 0.008301  0.008775 -0.007786)
 76:   1550.07   0.000238    1.20  0.000048  ( 0.000556 -0.006857 -0.000695)
 77:   3067.75   0.001629    8.23  0.000166  ( 0.006547  0.006190  0.009192)
 78:   3074.37   0.004929   24.91  0.000500  ( 0.004012  0.021513  0.004631)
 79:   3076.09   0.001674    8.46  0.000170  (-0.000416 -0.012785  0.002486)
 80:   3079.44   0.012336   62.34  0.001250  (-0.020709 -0.025400  0.013267)
 81:   3090.16   0.005969   30.16  0.000603  ( 0.009584 -0.009854 -0.020342)
 82:   3093.82   0.008750   44.22  0.000883  ( 0.004092  0.017191  0.023881)
 83:   3095.14   0.005863   29.63  0.000591  ( 0.016668 -0.006646  0.016405)
 84:   3096.30   0.005374   27.16  0.000542  ( 0.009935 -0.020301  0.005549)
 85:   3098.40   0.004032   20.38  0.000406  (-0.000607  0.019896  0.003150)
 86:   3100.48   0.001670    8.44  0.000168  ( 0.011608  0.004329  0.003820)
 87:   3127.19   0.001130    5.71  0.000113  ( 0.003413 -0.006334  0.007808)
 88:   3136.91   0.009504   48.03  0.000945  ( 0.009425 -0.025758 -0.013899)
 89:   3138.41   0.003800   19.20  0.000378  (-0.006491 -0.000186 -0.018321)
 90:   3152.70   0.010185   51.47  0.001008  (-0.011152  0.017705 -0.023880)
 91:   3176.15   0.000859    4.34  0.000084  (-0.003182  0.001625 -0.008466)
 92:   3179.67   0.008425   42.58  0.000827  (-0.012144 -0.024566  0.008710)
 93:   3180.96   0.006647   33.59  0.000652  (-0.001377 -0.002381  0.025387)
 94:   3186.44   0.005738   29.00  0.000562  ( 0.019436  0.003718  0.013051)
 95:   3186.85   0.003076   15.55  0.000301  (-0.004561 -0.016646  0.001832)
 96:   3190.78   0.004434   22.41  0.000434  (-0.020523  0.003377 -0.001038)
 97:   3197.86   0.004449   22.48  0.000434  (-0.014197  0.010299  0.011248)
 98:   3962.44   0.008764   44.29  0.000690  (-0.007991 -0.022613  0.010725)

--------------------------
THERMOCHEMISTRY AT 298.15K
--------------------------

Temperature         ...   298.15 K
Pressure            ...     1.00 atm
Total Mass          ...   158.28 AMU
Quasi RRHO          ...     True
Cut-Off Frequency   ...     1.00 cm^-1

Throughout the following assumptions are being made:
  (1) The electronic state is orbitally nondegenerate
  (2) There are no thermally accessible electronically excited states
  (3) Hindered rotations indicated by low frequency modes are not
      treated as such but are treated as vibrations and this may
      cause some error
  (4) All equations used are the standard statistical mechanics
      equations for an ideal gas
  (5) All vibrations are strictly harmonic

freq.      30.91  E(vib)   ...       0.55
freq.      33.52  E(vib)   ...       0.55
freq.      69.39  E(vib)   ...       0.50
freq.      75.60  E(vib)   ...       0.49
freq.     104.91  E(vib)   ...       0.46
freq.     116.55  E(vib)   ...       0.44
freq.     186.43  E(vib)   ...       0.37
freq.     209.17  E(vib)   ...       0.34
freq.     226.29  E(vib)   ...       0.33
freq.     234.39  E(vib)   ...       0.32
freq.     257.91  E(vib)   ...       0.30
freq.     263.26  E(vib)   ...       0.29
freq.     278.76  E(vib)   ...       0.28
freq.     305.77  E(vib)   ...       0.26
freq.     370.54  E(vib)   ...       0.21
freq.     389.34  E(vib)   ...       0.20
freq.     397.98  E(vib)   ...       0.20
freq.     436.50  E(vib)   ...       0.17
freq.     456.08  E(vib)   ...       0.16
freq.     496.53  E(vib)   ...       0.14
freq.     618.80  E(vib)   ...       0.09
freq.     752.91  E(vib)   ...       0.06
freq.     795.31  E(vib)   ...       0.05
freq.     836.10  E(vib)   ...       0.04
freq.     856.54  E(vib)   ...       0.04
freq.     888.17  E(vib)   ...       0.04
freq.     949.51  E(vib)   ...       0.03
freq.     957.20  E(vib)   ...       0.03
freq.     981.53  E(vib)   ...       0.02
freq.     992.74  E(vib)   ...       0.02
freq.    1001.38  E(vib)   ...       0.02
freq.    1015.41  E(vib)   ...       0.02
freq.    1032.84  E(vib)   ...       0.02
freq.    1050.92  E(vib)   ...       0.02
freq.    1103.34  E(vib)   ...       0.02
freq.    1120.59  E(vib)   ...       0.01
freq.    1129.82  E(vib)   ...       0.01
freq.    1138.14  E(vib)   ...       0.01
freq.    1150.36  E(vib)   ...       0.01
freq.    1187.69  E(vib)   ...       0.01
freq.    1222.04  E(vib)   ...       0.01
freq.    1227.06  E(vib)   ...       0.01
freq.    1243.96  E(vib)   ...       0.01
freq.    1268.92  E(vib)   ...       0.01
freq.    1291.38  E(vib)   ...       0.01
freq.    1332.59  E(vib)   ...       0.01
freq.    1336.63  E(vib)   ...       0.01
freq.    1355.19  E(vib)   ...       0.01
freq.    1361.57  E(vib)   ...       0.01
freq.    1381.13  E(vib)   ...       0.01
freq.    1400.02  E(vib)   ...       0.00
freq.    1407.61  E(vib)   ...       0.00
freq.    1412.68  E(vib)   ...       0.00
freq.    1417.29  E(vib)   ...       0.00
freq.    1441.65  E(vib)   ...       0.00
freq.    1447.61  E(vib)   ...       0.00
freq.    1451.75  E(vib)   ...       0.00
freq.    1455.40  E(vib)   ...       0.00
freq.    1460.02  E(vib)   ...       0.00
freq.    1472.87  E(vib)   ...       0.00
freq.    1506.31  E(vib)   ...       0.00
freq.    1512.99  E(vib)   ...       0.00
freq.    1518.53  E(vib)   ...       0.00
freq.    1519.51  E(vib)   ...       0.00
freq.    1524.94  E(vib)   ...       0.00
freq.    1527.50  E(vib)   ...       0.00
freq.    1531.41  E(vib)   ...       0.00
freq.    1534.45  E(vib)   ...       0.00
freq.    1541.35  E(vib)   ...       0.00
freq.    1543.96  E(vib)   ...       0.00
freq.    1550.07  E(vib)   ...       0.00
freq.    3067.75  E(vib)   ...       0.00
freq.    3074.37  E(vib)   ...       0.00
freq.    3076.09  E(vib)   ...       0.00
freq.    3079.44  E(vib)   ...       0.00
freq.    3090.16  E(vib)   ...       0.00
freq.    3093.82  E(vib)   ...       0.00
freq.    3095.14  E(vib)   ...       0.00
freq.    3096.30  E(vib)   ...       0.00
freq.    3098.40  E(vib)   ...       0.00
freq.    3100.48  E(vib)   ...       0.00
freq.    3127.19  E(vib)   ...       0.00
freq.    3136.91  E(vib)   ...       0.00
freq.    3138.41  E(vib)   ...       0.00
freq.    3152.70  E(vib)   ...       0.00
freq.    3176.15  E(vib)   ...       0.00
freq.    3179.67  E(vib)   ...       0.00
freq.    3180.96  E(vib)   ...       0.00
freq.    3186.44  E(vib)   ...       0.00
freq.    3186.85  E(vib)   ...       0.00
freq.    3190.78  E(vib)   ...       0.00
freq.    3197.86  E(vib)   ...       0.00
freq.    3962.44  E(vib)   ...       0.00

------------
INNER ENERGY
------------

The inner energy is: U= E(el) + E(ZPE) + E(vib) + E(rot) + E(trans)
    E(el)   - is the total energy from the electronic structure calculation
              = E(kin-el) + E(nuc-el) + E(el-el) + E(nuc-nuc)
    E(ZPE)  - the the zero temperature vibrational energy from the frequency calculation
    E(vib)  - the the finite temperature correction to E(ZPE) due to population
              of excited vibrational states
    E(rot)  - is the rotational thermal energy
    E(trans)- is the translational thermal energy

Summary of contributions to the inner energy U:
Electronic energy                ...    -86.34171862 Eh
Zero point energy                ...      0.31526617 Eh     197.83 kcal/mol
Thermal vibrational correction   ...      0.01161192 Eh       7.29 kcal/mol
Thermal rotational correction    ...      0.00141627 Eh       0.89 kcal/mol
Thermal translational correction ...      0.00141627 Eh       0.89 kcal/mol
-----------------------------------------------------------------------
Total thermal energy                    -86.01200799 Eh

Summary of corrections to the electronic energy:
(perhaps to be used in another calculation)
Total thermal correction                  0.01444446 Eh       9.06 kcal/mol
Non-thermal (ZPE) correction              0.31526617 Eh     197.83 kcal/mol
-----------------------------------------------------------------------
Total correction                          0.32971063 Eh     206.90 kcal/mol

--------
ENTHALPY
--------

The enthalpy is H = U + kB*T
                kB is Boltzmann's constant
Total thermal energy              ...    -86.01200799 Eh
Thermal Enthalpy correction       ...      0.00094421 Eh       0.59 kcal/mol
-----------------------------------------------------------------------
Total Enthalpy                    ...    -86.01106378 Eh

Note: Only C1 symmetry has been detected, increase convergence thresholds
      if your molecule has a higher symmetry. Symmetry factor of 1.0 is
      used for the rotational entropy correction.

Rotational constants in cm-1:     0.092159     0.011166     0.010813

                             ****ORCA TERMINATED NORMALLY****
TOTAL RUN TIME: 0 days 0 hours 21 minutes 33 seconds 457 msec
