                         Program Version 6.0.1  -  RELEASE   -
|  1> ! wB97X-3c OPT FREQ TightSCF
|  2> %pal
|  3>   nprocs 40
|  4> end
|  5> * xyz 0 1
|  6> C      3.110644    -0.773839     1.768662
|  7> C      2.672150    -0.036064     0.528083
|  8> C      1.474309     0.585886     0.446472
|  9> C      0.414657     0.546237     1.522623
| 10> C     -0.477591    -0.697421     1.399034
| 11> C     -1.222248    -0.730091     0.079861
| 12> C     -2.267184     0.104129    -0.110711
| 13> C     -3.062670     0.152845    -1.390137
| 14> O     -4.083791     1.145292    -1.309146
| 15> C     -3.820076     2.518499    -1.338374
| 16> O     -2.642608     2.953452    -1.450637
| 17> C     -0.779900    -1.694499    -0.995167
| 18> C      3.638810     0.048672    -0.624627
| 19> H      3.139848    -0.080627     2.635075
| 20> H      2.420919    -1.614234     1.984592
| 21> H      4.129794    -1.195230     1.636692
| 22> H      1.223733     1.137886    -0.455748
| 23> H     -0.214820     1.457690     1.432745
| 24> H      0.873238     0.580993     2.532839
| 25> H     -1.210841    -0.703510     2.234905
| 26> H      0.138709    -1.611949     1.520553
| 27> H     -2.556324     0.777988     0.692104
| 28> H     -3.544906    -0.833207    -1.555600
| 29> H     -2.397399     0.370705    -2.253598
| 30> H     -4.641210     3.218028    -1.264701
| 31> H     -1.603914    -2.397984    -1.236980
| 32> H      0.099061    -2.288991    -0.669385
| 33> H     -0.489167    -1.135393    -1.909082
| 34> H      3.183220     0.521414    -1.521162
| 35> H      3.971603    -0.972429    -0.906264
| 36> H      4.523955     0.645754    -0.320817
| 37> *
| 38>
| 39>                          ****END OF INPUT****
 Total Charge           Charge          ....    0
 Multiplicity           Mult            ....    1
 Number of Electrons    NEL             ....   74
Dispersion correction           -0.033857962
FINAL SINGLE POINT ENERGY      -105.587899871217
Dispersion correction             ... done (  0.1 sec)
Dispersion correction           -0.034330596
FINAL SINGLE POINT ENERGY      -105.609850914357
Dispersion correction             ... done (  0.1 sec)
Dispersion correction           -0.034407360
FINAL SINGLE POINT ENERGY      -105.612432642582
Dispersion correction             ... done (  0.1 sec)
FINAL SINGLE POINT ENERGY      -105.605974789893
FINAL SINGLE POINT ENERGY      -105.613714874610
FINAL SINGLE POINT ENERGY      -105.614164555698
FINAL SINGLE POINT ENERGY      -105.614428950680
FINAL SINGLE POINT ENERGY      -105.614498985119
FINAL SINGLE POINT ENERGY      -105.614526054731
FINAL SINGLE POINT ENERGY      -105.614550209835
FINAL SINGLE POINT ENERGY      -105.619930666789
FINAL SINGLE POINT ENERGY      -105.620066610883
FINAL SINGLE POINT ENERGY      -105.620131227644
FINAL SINGLE POINT ENERGY      -105.620191869731
FINAL SINGLE POINT ENERGY      -105.620243466148
FINAL SINGLE POINT ENERGY      -105.620271306585
FINAL SINGLE POINT ENERGY      -105.620290212713
Dispersion correction             ... done (  0.1 sec)
Dispersion correction           -0.034810292
FINAL SINGLE POINT ENERGY      -105.620295397164
Dispersion correction             ... done (  0.1 sec)
Dispersion correction           -0.034811076
FINAL SINGLE POINT ENERGY      -105.620298130697
Dispersion correction             ... done (  0.1 sec)
                    ***********************HURRAY********************

CARTESIAN COORDINATES (ANGSTROEM)
---------------------------------
  C      3.277292   -0.547791    1.618604
  C      2.493673    0.177101    0.569348
  C      1.190951    0.435857    0.637122
  C      0.241607    0.074346    1.734983
  C     -0.690349   -1.090936    1.387226
  C     -1.463899   -0.854231    0.115123
  C     -2.552525   -0.091103    0.147456
  C     -3.403606    0.300704   -1.006687
  O     -3.375105    1.731919   -1.201111
  C     -2.334409    2.225709   -1.853168
  O     -1.441393    1.593549   -2.338498
  C     -0.904034   -1.501984   -1.109734
  C      3.299706    0.612372   -0.616156
  H      4.070394    0.091232    2.010990
  H      2.670895   -0.885020    2.453675
  H      3.766251   -1.422178    1.185695
  H      0.742938    0.957116   -0.203830
  H     -0.377734    0.946728    1.955436
  H      0.772861   -0.165003    2.654781
  H     -1.381428   -1.244165    2.216740
  H     -0.099468   -2.003404    1.289991
  H     -2.868663    0.317807    1.102405
  H     -4.452381    0.089674   -0.812936
  H     -3.110750   -0.183922   -1.931967
  H     -2.408681    3.317564   -1.896451
  H     -1.073341   -2.579300   -1.064098
  H      0.174052   -1.351305   -1.145790
  H     -1.325027   -1.117767   -2.032429
  H      2.686078    1.126438   -1.352734
  H      3.771894   -0.244412   -1.100469
  H      4.104202    1.284407   -0.311411

 Multiplicity           Mult            ....    1
 Number of Electrons    NEL             ....   74
 Basis Dimension        Dim             ....  259

ORBITAL ENERGIES
----------------

  NO   OCC          E(Eh)            E(eV)
   0   2.0000      -1.244185       -33.8560
   1   2.0000      -1.150033       -31.2940
   2   2.0000      -0.976858       -26.5816
   3   2.0000      -0.950818       -25.8731
   4   2.0000      -0.908507       -24.7217
   5   2.0000      -0.873622       -23.7725
   6   2.0000      -0.825651       -22.4671
   7   2.0000      -0.821605       -22.3570
   8   2.0000      -0.802026       -21.8242
   9   2.0000      -0.743601       -20.2344
  10   2.0000      -0.710899       -19.3446
  11   2.0000      -0.665021       -18.0961
  12   2.0000      -0.653656       -17.7869
  13   2.0000      -0.631459       -17.1829
  14   2.0000      -0.601606       -16.3705
  15   2.0000      -0.594536       -16.1781
  16   2.0000      -0.585396       -15.9294
  17   2.0000      -0.578675       -15.7465
  18   2.0000      -0.556449       -15.1418
  19   2.0000      -0.545038       -14.8312
  20   2.0000      -0.540282       -14.7018
  21   2.0000      -0.535621       -14.5750
  22   2.0000      -0.525552       -14.3010
  23   2.0000      -0.503034       -13.6882
  24   2.0000      -0.498387       -13.5618
  25   2.0000      -0.491609       -13.3773
  26   2.0000      -0.480750       -13.0819
  27   2.0000      -0.474961       -12.9243
  28   2.0000      -0.472747       -12.8641
  29   2.0000      -0.462610       -12.5883
  30   2.0000      -0.450236       -12.2515
  31   2.0000      -0.441252       -12.0071
  32   2.0000      -0.422803       -11.5051
  33   2.0000      -0.412079       -11.2132
  34   2.0000      -0.401081       -10.9140
  35   2.0000      -0.351485        -9.5644
  36   2.0000      -0.326100        -8.8736
  37   0.0000       0.075815         2.0630
  38   0.0000       0.086669         2.3584
  39   0.0000       0.091203         2.4818
  40   0.0000       0.094588         2.5739
  41   0.0000       0.099628         2.7110

MULLIKEN ATOMIC CHARGES
-----------------------
   0 C :   -0.050792
   1 C :   -0.078794
   2 C :   -0.014978
   3 C :   -0.061379
   4 C :   -0.034899
   5 C :   -0.068750
   6 C :   -0.001625
   7 C :    0.091680
   8 O :   -0.264047
   9 C :    0.304248
  10 O :   -0.332802
  11 C :   -0.035843
  12 C :   -0.050130
  13 H :    0.039726
  14 H :    0.015877
  15 H :    0.036243
  16 H :    0.014714
  17 H :    0.038549
  18 H :    0.023685
  19 H :    0.040212
  20 H :    0.027179
  21 H :    0.017223
  22 H :    0.055945
  23 H :    0.038642
  24 H :    0.020583
  25 H :    0.047336
  26 H :    0.041738
  27 H :    0.038828
  28 H :    0.035644
  29 H :    0.030809
  30 H :    0.035178
Sum of atomic charges:   -0.0000000

LOEWDIN ATOMIC CHARGES
----------------------
   0 C :   -0.107360
   1 C :   -0.055991
   2 C :   -0.053499
   3 C :   -0.083760
   4 C :   -0.071807
   5 C :   -0.020170
   6 C :   -0.064983
   7 C :   -0.026272
   8 O :   -0.014245
   9 C :   -0.029428
  10 O :   -0.138163
  11 C :   -0.098445
  12 C :   -0.107172
  13 H :    0.050408
  14 H :    0.042382
  15 H :    0.049652
  16 H :    0.041355
  17 H :    0.049351
  18 H :    0.042926
  19 H :    0.051149
  20 H :    0.048480
  21 H :    0.039603
  22 H :    0.059360
  23 H :    0.048094
  24 H :    0.053268
  25 H :    0.051359
  26 H :    0.053239
  27 H :    0.044576
  28 H :    0.052033
  29 H :    0.046207
  30 H :    0.047854

  Mayer bond orders larger than 0.100000
B(  0-C ,  1-C ) :   1.0336 B(  0-C , 13-H ) :   0.9778 B(  0-C , 14-H ) :   0.9923
B(  0-C , 15-H ) :   0.9774 B(  1-C ,  2-C ) :   1.8999 B(  1-C , 12-C ) :   1.0329
B(  2-C ,  3-C ) :   1.0206 B(  2-C , 16-H ) :   0.9880 B(  3-C ,  4-C ) :   0.9678
B(  3-C , 17-H ) :   0.9887 B(  3-C , 18-H ) :   0.9980 B(  4-C ,  5-C ) :   1.0179
B(  4-C , 19-H ) :   0.9920 B(  4-C , 20-H ) :   0.9919 B(  5-C ,  6-C ) :   1.8798
B(  5-C , 11-C ) :   1.0422 B(  6-C ,  7-C ) :   1.0332 B(  6-C , 21-H ) :   0.9863
B(  7-C ,  8-O ) :   0.8546 B(  7-C , 22-H ) :   1.0029 B(  7-C , 23-H ) :   0.9985
B(  8-O ,  9-C ) :   1.1745 B(  9-C , 10-O ) :   1.9178 B(  9-C , 24-H ) :   1.0303
B( 11-C , 25-H ) :   0.9699 B( 11-C , 26-H ) :   0.9759 B( 11-C , 27-H ) :   0.9835
B( 12-C , 28-H ) :   0.9890 B( 12-C , 29-H ) :   0.9793 B( 12-C , 30-H ) :   0.9818

Dispersion correction           -0.034810739
FINAL SINGLE POINT ENERGY      -105.620299306666

DIPOLE MOMENT
-------------

Method             : SCF
Type of density    : Electron Density
Multiplicity       :   1
Irrep              :   0
Energy             :  -105.5854885674999366 Eh
Relativity type    :
Basis              : AO
                                X                 Y                 Z
Electronic contribution:    -12.424365314       5.804630606      -3.529665833
Nuclear contribution   :     12.233326971      -6.106675522       3.994135848
                        -----------------------------------------
Total Dipole Moment    :     -0.191038343      -0.302044916       0.464470014
                        -----------------------------------------
Magnitude (a.u.)       :      0.586053900
Magnitude (Debye)      :      1.489630631

VIBRATIONAL FREQUENCIES
-----------------------

Scaling factor for frequencies =  1.000000000  (already applied!)

     0:       0.00 cm**-1
     1:       0.00 cm**-1
     2:       0.00 cm**-1
     3:       0.00 cm**-1
     4:       0.00 cm**-1
     5:       0.00 cm**-1
     6:      21.35 cm**-1
     7:      33.96 cm**-1
     8:      42.37 cm**-1
     9:      68.68 cm**-1
    10:      91.19 cm**-1
    11:     100.13 cm**-1
    12:     124.93 cm**-1
    13:     138.74 cm**-1
    14:     147.18 cm**-1
    15:     190.83 cm**-1
    16:     223.07 cm**-1
    17:     250.73 cm**-1
    18:     303.98 cm**-1
    19:     330.88 cm**-1
    20:     356.53 cm**-1
    21:     372.68 cm**-1
    22:     393.95 cm**-1
    23:     421.74 cm**-1
    24:     466.76 cm**-1
    25:     500.35 cm**-1
    26:     530.98 cm**-1
    27:     550.46 cm**-1
    28:     613.99 cm**-1
    29:     766.81 cm**-1
    30:     783.06 cm**-1
    31:     827.23 cm**-1
    32:     875.65 cm**-1
    33:     884.83 cm**-1
    34:     924.14 cm**-1
    35:     958.98 cm**-1
    36:     972.33 cm**-1
    37:     987.47 cm**-1
    38:    1022.02 cm**-1
    39:    1030.58 cm**-1
    40:    1040.45 cm**-1
    41:    1063.11 cm**-1
    42:    1068.99 cm**-1
    43:    1091.18 cm**-1
    44:    1097.55 cm**-1
    45:    1129.27 cm**-1
    46:    1151.32 cm**-1
    47:    1169.12 cm**-1
    48:    1215.78 cm**-1
    49:    1244.54 cm**-1
    50:    1250.80 cm**-1
    51:    1267.42 cm**-1
    52:    1300.71 cm**-1
    53:    1334.02 cm**-1
    54:    1378.13 cm**-1
    55:    1388.22 cm**-1
    56:    1405.11 cm**-1
    57:    1422.66 cm**-1
    58:    1428.97 cm**-1
    59:    1441.49 cm**-1
    60:    1450.66 cm**-1
    61:    1460.69 cm**-1
    62:    1463.67 cm**-1
    63:    1502.73 cm**-1
    64:    1503.38 cm**-1
    65:    1507.72 cm**-1
    66:    1517.72 cm**-1
    67:    1521.78 cm**-1
    68:    1524.63 cm**-1
    69:    1527.82 cm**-1
    70:    1533.83 cm**-1
    71:    1539.98 cm**-1
    72:    1800.21 cm**-1
    73:    1808.03 cm**-1
    74:    1865.56 cm**-1
    75:    3091.19 cm**-1
    76:    3098.19 cm**-1
    77:    3104.35 cm**-1
    78:    3105.47 cm**-1
    79:    3107.42 cm**-1
    80:    3141.44 cm**-1
    81:    3160.27 cm**-1
    82:    3163.27 cm**-1
    83:    3165.32 cm**-1
    84:    3167.94 cm**-1
    85:    3172.08 cm**-1
    86:    3185.45 cm**-1
    87:    3201.96 cm**-1
    88:    3204.95 cm**-1
    89:    3208.04 cm**-1
    90:    3224.46 cm**-1
    91:    3234.41 cm**-1
    92:    3245.92 cm**-1

IR SPECTRUM
-----------

 Mode   freq       eps      Int      T**2         TX        TY        TZ
       cm**-1   L/(mol*cm) km/mol    a.u.
----------------------------------------------------------------------------
  6:     21.35   0.000064    0.32  0.000932  (-0.013880  0.024594 -0.011595)
  7:     33.96   0.000109    0.55  0.001001  (-0.010198 -0.011307 -0.027733)
  8:     42.37   0.000205    1.03  0.001507  (-0.022545 -0.007446 -0.030711)
  9:     68.68   0.000114    0.58  0.000518  ( 0.009142  0.019128 -0.008293)
 10:     91.19   0.000248    1.25  0.000848  (-0.013698  0.014201 -0.021426)
 11:    100.13   0.000061    0.31  0.000189  (-0.005484 -0.012033  0.003803)
 12:    124.93   0.000355    1.80  0.000888  (-0.014408 -0.016318 -0.020340)
 13:    138.74   0.000120    0.61  0.000270  (-0.008815 -0.004929 -0.012945)
 14:    147.18   0.000254    1.29  0.000539  ( 0.018304  0.003036  0.013965)
 15:    190.83   0.000070    0.35  0.000115  (-0.000638  0.010206 -0.003170)
 16:    223.07   0.000167    0.84  0.000234  (-0.008093 -0.006725 -0.011094)
 17:    250.73   0.000759    3.83  0.000944  ( 0.011240  0.023446 -0.016378)
 18:    303.98   0.002537   12.82  0.002604  (-0.024310  0.005033 -0.044588)
 19:    330.88   0.000961    4.86  0.000906  ( 0.001793  0.000192 -0.030050)
 20:    356.53   0.001603    8.10  0.001403  (-0.011708 -0.025005  0.025318)
 21:    372.68   0.001673    8.45  0.001401  ( 0.031713 -0.003967  0.019473)
 22:    393.95   0.000042    0.21  0.000033  (-0.002031  0.001497 -0.005175)
 23:    421.74   0.000169    0.86  0.000125  ( 0.005331  0.008547  0.004881)
 24:    466.76   0.001710    8.64  0.001143  (-0.016752 -0.028506 -0.007063)
 25:    500.35   0.000233    1.18  0.000146  (-0.004145 -0.010608 -0.003989)
 26:    530.98   0.001279    6.46  0.000751  ( 0.024425  0.008394  0.009186)
 27:    550.46   0.003210   16.22  0.001820  ( 0.031832 -0.020285  0.019875)
 28:    613.99   0.000786    3.97  0.000399  (-0.014498 -0.013482  0.002717)
 29:    766.81   0.000275    1.39  0.000112  ( 0.002759  0.005127  0.008839)
 30:    783.06   0.001808    9.14  0.000721  (-0.007321  0.025794  0.001284)
 31:    827.23   0.001226    6.20  0.000463  (-0.010915  0.017036 -0.007291)
 32:    875.65   0.001318    6.66  0.000470  ( 0.021004 -0.000535 -0.005318)
 33:    884.83   0.003081   15.57  0.001087  ( 0.025833  0.019787  0.005281)
 34:    924.14   0.002304   11.64  0.000778  ( 0.016401 -0.022043 -0.004816)
 35:    958.98   0.009853   49.80  0.003206  (-0.003517  0.055882 -0.008445)
 36:    972.33   0.001776    8.98  0.000570  ( 0.023385  0.000944  0.004727)
 37:    987.47   0.000223    1.13  0.000071  (-0.005643  0.001252 -0.006100)
 38:   1022.02   0.000106    0.54  0.000032  ( 0.000796  0.001341 -0.005467)
 39:   1030.58   0.001681    8.50  0.000509  (-0.018753  0.006706 -0.010601)
 40:   1040.45   0.001074    5.43  0.000322  ( 0.009990  0.013226  0.006887)
 41:   1063.11   0.000762    3.85  0.000224  (-0.011130  0.007128  0.006991)
 42:   1068.99   0.000059    0.30  0.000017  (-0.002766  0.002675 -0.001559)
 43:   1091.18   0.000612    3.09  0.000175  (-0.011240  0.006560 -0.002389)
 44:   1097.55   0.000509    2.57  0.000145  (-0.011558  0.000751 -0.003256)
 45:   1129.27   0.000063    0.32  0.000017  (-0.002881 -0.002580 -0.001555)
 46:   1151.32   0.000981    4.96  0.000266  (-0.010191 -0.011175 -0.006088)
 47:   1169.12   0.002448   12.37  0.000653  ( 0.025537  0.001040  0.000346)
 48:   1215.78   0.000207    1.05  0.000053  (-0.007106 -0.001374  0.000934)
 49:   1244.54   0.019907  100.60  0.004992  (-0.026911 -0.059601  0.026740)
 50:   1250.80   0.020039  101.27  0.005000  (-0.019033 -0.053840  0.041697)
 51:   1267.42   0.016717   84.48  0.004116  ( 0.012440  0.046288 -0.042645)
 52:   1300.71   0.000675    3.41  0.000162  ( 0.005101 -0.002291 -0.011427)
 53:   1334.02   0.011639   58.82  0.002723  ( 0.034098  0.028210 -0.027643)
 54:   1378.13   0.002777   14.03  0.000629  ( 0.022807  0.008693 -0.005746)
 55:   1388.22   0.000569    2.87  0.000128  (-0.000529 -0.011281 -0.000580)
 56:   1405.11   0.001653    8.35  0.000367  (-0.018162 -0.005731  0.002109)
 57:   1422.66   0.000531    2.68  0.000116  ( 0.004510 -0.008164  0.005425)
 58:   1428.97   0.000787    3.98  0.000172  ( 0.007372 -0.010627 -0.002158)
 59:   1441.49   0.000788    3.98  0.000171  (-0.012454  0.001047  0.003793)
 60:   1450.66   0.001315    6.65  0.000283  (-0.004028 -0.003292  0.015997)
 61:   1460.69   0.002922   14.77  0.000624  (-0.012545  0.011119 -0.018525)
 62:   1463.67   0.002509   12.68  0.000535  ( 0.005674  0.015427  0.016268)
 63:   1502.73   0.000050    0.25  0.000010  (-0.000217 -0.003035  0.001092)
 64:   1503.38   0.000514    2.60  0.000107  ( 0.009851  0.002738  0.001500)
 65:   1507.72   0.001219    6.16  0.000252  (-0.005674 -0.013863  0.005277)
 66:   1517.72   0.003674   18.57  0.000755  ( 0.004065  0.026917  0.003787)
 67:   1521.78   0.002912   14.71  0.000597  ( 0.009935  0.017445  0.013930)
 68:   1524.63   0.001094    5.53  0.000224  ( 0.007921 -0.010769 -0.006729)
 69:   1527.82   0.001933    9.77  0.000395  (-0.009636  0.006958 -0.015926)
 70:   1533.83   0.002161   10.92  0.000440  (-0.012480 -0.000973  0.016819)
 71:   1539.98   0.001511    7.64  0.000306  ( 0.008179  0.004815  0.014700)
 72:   1800.21   0.004377   22.12  0.000759  ( 0.022151 -0.014522  0.007558)
 73:   1808.03   0.001027    5.19  0.000177  (-0.013262  0.000034 -0.001190)
 74:   1865.56   0.059642  301.41  0.009977  ( 0.085216 -0.013328 -0.050372)
 75:   3091.19   0.006667   33.69  0.000673  ( 0.018170  0.006587 -0.017307)
 76:   3098.19   0.009238   46.68  0.000930  (-0.028370  0.010742 -0.003195)
 77:   3104.35   0.001652    8.35  0.000166  ( 0.005147  0.009445 -0.007095)
 78:   3105.47   0.006223   31.45  0.000625  ( 0.001514 -0.010763 -0.022522)
 79:   3107.42   0.005621   28.41  0.000564  ( 0.002668 -0.023119  0.004783)
 80:   3141.44   0.008862   44.79  0.000880  (-0.006003  0.028899 -0.003033)
 81:   3160.27   0.005259   26.58  0.000519  ( 0.021054  0.006883  0.005351)
 82:   3163.27   0.003573   18.05  0.000352  ( 0.006890 -0.004693 -0.016822)
 83:   3165.32   0.001444    7.30  0.000142  (-0.002021 -0.010525 -0.005248)
 84:   3167.94   0.003154   15.94  0.000311  ( 0.004999  0.014029  0.009427)
 85:   3172.08   0.003904   19.73  0.000384  ( 0.015197 -0.009494  0.007937)
 86:   3185.45   0.000712    3.60  0.000070  ( 0.005942  0.005112 -0.002879)
 87:   3201.96   0.000492    2.48  0.000048  (-0.001118 -0.003959  0.005566)
 88:   3204.95   0.001634    8.26  0.000159  ( 0.004236 -0.002006 -0.011709)
 89:   3208.04   0.003566   18.02  0.000347  (-0.011927  0.008913 -0.011189)
 90:   3224.46   0.003110   15.72  0.000301  (-0.008016 -0.006037  0.014152)
 91:   3234.41   0.000510    2.58  0.000049  (-0.004585  0.004137  0.003330)
 92:   3245.92   0.001856    9.38  0.000178  ( 0.004357  0.001440  0.012545)

--------------------------
THERMOCHEMISTRY AT 298.15K
--------------------------

Temperature         ...   298.15 K
Pressure            ...     1.00 atm
Total Mass          ...   182.26 AMU
Quasi RRHO          ...     True
Cut-Off Frequency   ...     1.00 cm^-1

Throughout the following assumptions are being made:
  (1) The electronic state is orbitally nondegenerate
  (2) There are no thermally accessible electronically excited states
  (3) Hindered rotations indicated by low frequency modes are not
      treated as such but are treated as vibrations and this may
      cause some error
  (4) All equations used are the standard statistical mechanics
      equations for an ideal gas
  (5) All vibrations are strictly harmonic

freq.      21.35  E(vib)   ...       0.56
freq.      33.96  E(vib)   ...       0.55
freq.      42.37  E(vib)   ...       0.53
freq.      68.68  E(vib)   ...       0.50
freq.      91.19  E(vib)   ...       0.47
freq.     100.13  E(vib)   ...       0.46
freq.     124.93  E(vib)   ...       0.43
freq.     138.74  E(vib)   ...       0.42
freq.     147.18  E(vib)   ...       0.41
freq.     190.83  E(vib)   ...       0.36
freq.     223.07  E(vib)   ...       0.33
freq.     250.73  E(vib)   ...       0.30
freq.     303.98  E(vib)   ...       0.26
freq.     330.88  E(vib)   ...       0.24
freq.     356.53  E(vib)   ...       0.22
freq.     372.68  E(vib)   ...       0.21
freq.     393.95  E(vib)   ...       0.20
freq.     421.74  E(vib)   ...       0.18
freq.     466.76  E(vib)   ...       0.16
freq.     500.35  E(vib)   ...       0.14
freq.     530.98  E(vib)   ...       0.13
freq.     550.46  E(vib)   ...       0.12
freq.     613.99  E(vib)   ...       0.10
freq.     766.81  E(vib)   ...       0.06
freq.     783.06  E(vib)   ...       0.05
freq.     827.23  E(vib)   ...       0.04
freq.     875.65  E(vib)   ...       0.04
freq.     884.83  E(vib)   ...       0.04
freq.     924.14  E(vib)   ...       0.03
freq.     958.98  E(vib)   ...       0.03
freq.     972.33  E(vib)   ...       0.03
freq.     987.47  E(vib)   ...       0.02
freq.    1022.02  E(vib)   ...       0.02
freq.    1030.58  E(vib)   ...       0.02
freq.    1040.45  E(vib)   ...       0.02
freq.    1063.11  E(vib)   ...       0.02
freq.    1068.99  E(vib)   ...       0.02
freq.    1091.18  E(vib)   ...       0.02
freq.    1097.55  E(vib)   ...       0.02
freq.    1129.27  E(vib)   ...       0.01
freq.    1151.32  E(vib)   ...       0.01
freq.    1169.12  E(vib)   ...       0.01
freq.    1215.78  E(vib)   ...       0.01
freq.    1244.54  E(vib)   ...       0.01
freq.    1250.80  E(vib)   ...       0.01
freq.    1267.42  E(vib)   ...       0.01
freq.    1300.71  E(vib)   ...       0.01
freq.    1334.02  E(vib)   ...       0.01
freq.    1378.13  E(vib)   ...       0.01
freq.    1388.22  E(vib)   ...       0.00
freq.    1405.11  E(vib)   ...       0.00
freq.    1422.66  E(vib)   ...       0.00
freq.    1428.97  E(vib)   ...       0.00
freq.    1441.49  E(vib)   ...       0.00
freq.    1450.66  E(vib)   ...       0.00
freq.    1460.69  E(vib)   ...       0.00
freq.    1463.67  E(vib)   ...       0.00
freq.    1502.73  E(vib)   ...       0.00
freq.    1503.38  E(vib)   ...       0.00
freq.    1507.72  E(vib)   ...       0.00
freq.    1517.72  E(vib)   ...       0.00
freq.    1521.78  E(vib)   ...       0.00
freq.    1524.63  E(vib)   ...       0.00
freq.    1527.82  E(vib)   ...       0.00
freq.    1533.83  E(vib)   ...       0.00
freq.    1539.98  E(vib)   ...       0.00
freq.    1800.21  E(vib)   ...       0.00
freq.    1808.03  E(vib)   ...       0.00
freq.    1865.56  E(vib)   ...       0.00
freq.    3091.19  E(vib)   ...       0.00
freq.    3098.19  E(vib)   ...       0.00
freq.    3104.35  E(vib)   ...       0.00
freq.    3105.47  E(vib)   ...       0.00
freq.    3107.42  E(vib)   ...       0.00
freq.    3141.44  E(vib)   ...       0.00
freq.    3160.27  E(vib)   ...       0.00
freq.    3163.27  E(vib)   ...       0.00
freq.    3165.32  E(vib)   ...       0.00
freq.    3167.94  E(vib)   ...       0.00
freq.    3172.08  E(vib)   ...       0.00
freq.    3185.45  E(vib)   ...       0.00
freq.    3201.96  E(vib)   ...       0.00
freq.    3204.95  E(vib)   ...       0.00
freq.    3208.04  E(vib)   ...       0.00
freq.    3224.46  E(vib)   ...       0.00
freq.    3234.41  E(vib)   ...       0.00
freq.    3245.92  E(vib)   ...       0.00

------------
INNER ENERGY
------------

The inner energy is: U= E(el) + E(ZPE) + E(vib) + E(rot) + E(trans)
    E(el)   - is the total energy from the electronic structure calculation
              = E(kin-el) + E(nuc-el) + E(el-el) + E(nuc-nuc)
    E(ZPE)  - the the zero temperature vibrational energy from the frequency calculation
    E(vib)  - the the finite temperature correction to E(ZPE) due to population
              of excited vibrational states
    E(rot)  - is the rotational thermal energy
    E(trans)- is the translational thermal energy

Summary of contributions to the inner energy U:
Electronic energy                ...   -105.62029931 Eh
Zero point energy                ...      0.27727116 Eh     173.99 kcal/mol
Thermal vibrational correction   ...      0.01257651 Eh       7.89 kcal/mol
Thermal rotational correction    ...      0.00141627 Eh       0.89 kcal/mol
Thermal translational correction ...      0.00141627 Eh       0.89 kcal/mol
-----------------------------------------------------------------------
Total thermal energy                   -105.32761910 Eh

Summary of corrections to the electronic energy:
(perhaps to be used in another calculation)
Total thermal correction                  0.01540905 Eh       9.67 kcal/mol
Non-thermal (ZPE) correction              0.27727116 Eh     173.99 kcal/mol
-----------------------------------------------------------------------
Total correction                          0.29268020 Eh     183.66 kcal/mol

--------
ENTHALPY
--------

The enthalpy is H = U + kB*T
                kB is Boltzmann's constant
Total thermal energy              ...   -105.32761910 Eh
Thermal Enthalpy correction       ...      0.00094421 Eh       0.59 kcal/mol
-----------------------------------------------------------------------
Total Enthalpy                    ...   -105.32667489 Eh

Note: Only C1 symmetry has been detected, increase convergence thresholds
      if your molecule has a higher symmetry. Symmetry factor of 1.0 is
      used for the rotational entropy correction.

Note: Rotational entropy computed according to Herzberg
Infrared and Raman Spectra, Chapter V,1, Van Nostrand Reinhold, 1945
Point Group:  C1, Symmetry Number:   1
Rotational constants in cm-1:     0.040411     0.013673     0.011790

Vibrational entropy computed according to the QRRHO of S. Grimme

                             ****ORCA TERMINATED NORMALLY****
TOTAL RUN TIME: 0 days 0 hours 49 minutes 12 seconds 491 msec
