                         Program Version 6.0.1  -  RELEASE   -
|  1> ! wB97X-3c OPT FREQ TightSCF
|  2> %pal
|  3>   nprocs 40
|  4> end
|  5> * xyz 0 1
|  6> C      2.911777     1.254297     1.613107
|  7> C      2.657491     0.595597     0.252968
|  8> C      3.038029    -0.898526     0.259825
|  9> C      1.723821    -1.684325     0.167766
| 10> C      0.690533    -0.644041    -0.098315
| 11> C      1.202862     0.587931    -0.078846
| 12> C      0.340325     1.828229    -0.254517
| 13> C     -1.117505     1.452942    -0.661120
| 14> C     -1.110555     0.893029    -2.102080
| 15> C     -0.925931    -0.628663    -1.960111
| 16> C     -0.786088    -0.883476    -0.442367
| 17> C     -1.640536     0.262334     0.189104
| 18> C     -1.429846     0.443882     1.720075
| 19> C     -3.172924     0.087062    -0.025997
| 20> C     -1.242853    -2.303681    -0.052082
| 21> H      2.322588     0.751770     2.410729
| 22> H      3.990919     1.189722     1.867706
| 23> H      2.631151     2.328061     1.577574
| 24> H      3.221318     1.138000    -0.537296
| 25> H      3.606679    -1.192847     1.169621
| 26> H      3.667582    -1.123775    -0.629195
| 27> H      1.761840    -2.419595    -0.664359
| 28> H      1.503270    -2.197369     1.128329
| 29> H      0.316703     2.394975     0.699838
| 30> H      0.798178     2.495193    -1.015920
| 31> H     -1.772283     2.348897    -0.582902
| 32> H     -0.303866     1.334866    -2.727140
| 33> H     -2.079914     1.114639    -2.599515
| 34> H     -0.034113    -0.978023    -2.527760
| 35> H     -1.811859    -1.155190    -2.378397
| 36> H     -1.875529    -0.408597     2.275241
| 37> H     -1.926524     1.377073     2.061913
| 38> H     -0.367316     0.498755     2.025072
| 39> H     -3.443713    -0.122872    -1.079480
| 40> H     -3.707789     1.012552     0.277842
| 41> H     -3.568170    -0.745271     0.594072
| 42> H     -0.619533    -3.065639    -0.565731
| 43> H     -2.295150    -2.486341    -0.352187
| 44> H     -1.153067    -2.451574     1.044536
| 45> *
| 46>
| 47>                          ****END OF INPUT****
 Total Charge           Charge          ....    0
 Multiplicity           Mult            ....    1
 Number of Electrons    NEL             ....   84
Dispersion correction           -0.056749513
FINAL SINGLE POINT ENERGY       -99.955866820145
Dispersion correction             ... done (  0.1 sec)
Dispersion correction           -0.057533209
FINAL SINGLE POINT ENERGY       -99.967562990388
Dispersion correction             ... done (  0.1 sec)
Dispersion correction           -0.057621937
FINAL SINGLE POINT ENERGY       -99.968464348118
Dispersion correction             ... done (  0.1 sec)
FINAL SINGLE POINT ENERGY       -99.968739783064
FINAL SINGLE POINT ENERGY       -99.968832351193
FINAL SINGLE POINT ENERGY       -99.968894188278
FINAL SINGLE POINT ENERGY       -99.968955465516
FINAL SINGLE POINT ENERGY       -99.969024137303
FINAL SINGLE POINT ENERGY       -99.969065465035
FINAL SINGLE POINT ENERGY       -99.969095563046
Dispersion correction             ... done (  0.1 sec)
Dispersion correction           -0.057745272
FINAL SINGLE POINT ENERGY       -99.969107835456
Dispersion correction             ... done (  0.1 sec)
Dispersion correction           -0.057743816
FINAL SINGLE POINT ENERGY       -99.969112249745
Dispersion correction             ... done (  0.1 sec)
                    ***********************HURRAY********************

CARTESIAN COORDINATES (ANGSTROEM)
---------------------------------
  C      2.880672    1.109965    1.708889
  C      2.628540    0.645193    0.281031
  C      3.030287   -0.819359    0.042806
  C      1.733577   -1.634095    0.121943
  C      0.667335   -0.601072   -0.102793
  C      1.162169    0.629544   -0.051188
  C      0.311122    1.841159   -0.222992
  C     -1.082817    1.432749   -0.689702
  C     -1.031358    0.821681   -2.103154
  C     -0.961938   -0.703646   -1.909886
  C     -0.788573   -0.890583   -0.393207
  C     -1.636421    0.283114    0.174254
  C     -1.478894    0.494898    1.672781
  C     -3.128617    0.113823   -0.103756
  C     -1.203617   -2.267281    0.088362
  H      2.383697    0.449664    2.421468
  H      3.946773    1.111351    1.937286
  H      2.505909    2.120400    1.872734
  H      3.175239    1.308735   -0.395118
  H      3.787345   -1.161233    0.748391
  H      3.454236   -0.919210   -0.956457
  H      1.711360   -2.433334   -0.620800
  H      1.605662   -2.117978    1.094481
  H      0.257321    2.404797    0.713386
  H      0.760351    2.520175   -0.953391
  H     -1.744130    2.300890   -0.655295
  H     -0.170267    1.196923   -2.654996
  H     -1.913201    1.099045   -2.679458
  H     -0.134919   -1.153564   -2.458508
  H     -1.872975   -1.193970   -2.254827
  H     -1.951534   -0.317899    2.224839
  H     -1.971993    1.419058    1.977799
  H     -0.439124    0.546516    1.983783
  H     -3.356178   -0.034115   -1.156787
  H     -3.661349    1.008262    0.221489
  H     -3.544039   -0.727094    0.450114
  H     -0.598547   -3.042906   -0.379624
  H     -2.242832   -2.472852   -0.161568
  H     -1.088269   -2.367749    1.167670

 Multiplicity           Mult            ....    1
 Number of Electrons    NEL             ....   84
 Basis Dimension        Dim             ....  315

ORBITAL ENERGIES
----------------

  NO   OCC          E(Eh)            E(eV)
   0   2.0000      -1.025252       -27.8985
   1   2.0000      -0.977397       -26.5963
   2   2.0000      -0.915817       -24.9206
   3   2.0000      -0.897741       -24.4288
   4   2.0000      -0.878093       -23.8941
   5   2.0000      -0.863694       -23.5023
   6   2.0000      -0.817063       -22.2334
   7   2.0000      -0.810293       -22.0492
   8   2.0000      -0.782658       -21.2972
   9   2.0000      -0.763927       -20.7875
  10   2.0000      -0.754806       -20.5393
  11   2.0000      -0.688915       -18.7463
  12   2.0000      -0.670648       -18.2493
  13   2.0000      -0.660813       -17.9816
  14   2.0000      -0.603728       -16.4283
  15   2.0000      -0.597153       -16.2494
  16   2.0000      -0.586529       -15.9603
  17   2.0000      -0.578566       -15.7436
  18   2.0000      -0.563483       -15.3331
  19   2.0000      -0.550875       -14.9901
  20   2.0000      -0.544632       -14.8202
  21   2.0000      -0.530217       -14.4279
  22   2.0000      -0.516854       -14.0643
  23   2.0000      -0.509260       -13.8577
  24   2.0000      -0.500454       -13.6180
  25   2.0000      -0.496412       -13.5081
  26   2.0000      -0.487730       -13.2718
  27   2.0000      -0.483872       -13.1668
  28   2.0000      -0.482893       -13.1402
  29   2.0000      -0.472279       -12.8514
  30   2.0000      -0.468941       -12.7605
  31   2.0000      -0.459781       -12.5113
  32   2.0000      -0.440125       -11.9764
  33   2.0000      -0.433356       -11.7922
  34   2.0000      -0.426931       -11.6174
  35   2.0000      -0.423757       -11.5310
  36   2.0000      -0.417888       -11.3713
  37   2.0000      -0.414565       -11.2809
  38   2.0000      -0.407854       -11.0983
  39   2.0000      -0.388111       -10.5610
  40   2.0000      -0.384089       -10.4516
  41   2.0000      -0.311113        -8.4658
  42   0.0000       0.086298         2.3483
  43   0.0000       0.093398         2.5415
  44   0.0000       0.095563         2.6004
  45   0.0000       0.099463         2.7065
  46   0.0000       0.106028         2.8852

MULLIKEN ATOMIC CHARGES
-----------------------
   0 C :   -0.038898
   1 C :   -0.083622
   2 C :   -0.019648
   3 C :   -0.048715
   4 C :    0.013956
   5 C :   -0.036600
   6 C :   -0.022968
   7 C :   -0.037891
   8 C :   -0.024426
   9 C :    0.028824
  10 C :   -0.208489
  11 C :   -0.175535
  12 C :    0.017994
  13 C :   -0.003116
  14 C :    0.011433
  15 H :    0.021466
  16 H :    0.029815
  17 H :    0.026735
  18 H :    0.027217
  19 H :    0.025063
  20 H :    0.029393
  21 H :    0.033189
  22 H :    0.030656
  23 H :    0.026078
  24 H :    0.032582
  25 H :    0.028420
  26 H :    0.027708
  27 H :    0.032649
  28 H :    0.032119
  29 H :    0.020467
  30 H :    0.022297
  31 H :    0.026836
  32 H :    0.015285
  33 H :    0.016492
  34 H :    0.026510
  35 H :    0.023345
  36 H :    0.025265
  37 H :    0.023965
  38 H :    0.024150
Sum of atomic charges:   -0.0000000

LOEWDIN ATOMIC CHARGES
----------------------
   0 C :   -0.108778
   1 C :   -0.069615
   2 C :   -0.055827
   3 C :   -0.074498
   4 C :   -0.011592
   5 C :   -0.031416
   6 C :   -0.078277
   7 C :   -0.044807
   8 C :   -0.060366
   9 C :   -0.059530
  10 C :   -0.059767
  11 C :   -0.056085
  12 C :   -0.099642
  13 C :   -0.099044
  14 C :   -0.101287
  15 H :    0.042793
  16 H :    0.042360
  17 H :    0.041800
  18 H :    0.041511
  19 H :    0.038778
  20 H :    0.043460
  21 H :    0.040861
  22 H :    0.040996
  23 H :    0.044132
  24 H :    0.048115
  25 H :    0.041510
  26 H :    0.040843
  27 H :    0.038404
  28 H :    0.041582
  29 H :    0.035583
  30 H :    0.042453
  31 H :    0.044532
  32 H :    0.040103
  33 H :    0.041141
  34 H :    0.045765
  35 H :    0.041429
  36 H :    0.045818
  37 H :    0.043146
  38 H :    0.043414

  Mayer bond orders larger than 0.100000
B(  0-C ,  1-C ) :   0.9829 B(  0-C , 15-H ) :   0.9909 B(  0-C , 16-H ) :   0.9951
B(  0-C , 17-H ) :   0.9961 B(  1-C ,  2-C ) :   0.9898 B(  1-C ,  5-C ) :   1.0187
B(  1-C , 18-H ) :   0.9948 B(  2-C ,  3-C ) :   0.9895 B(  2-C , 19-H ) :   0.9992
B(  2-C , 20-H ) :   1.0011 B(  3-C ,  4-C ) :   1.0136 B(  3-C , 21-H ) :   0.9896
B(  3-C , 22-H ) :   0.9837 B(  4-C ,  5-C ) :   1.8800 B(  4-C , 10-C ) :   1.0327
B(  5-C ,  6-C ) :   1.0113 B(  6-C ,  7-C ) :   1.0045 B(  6-C , 23-H ) :   0.9806
B(  6-C , 24-H ) :   0.9845 B(  7-C ,  8-C ) :   0.9896 B(  7-C , 11-C ) :   0.9739
B(  7-C , 25-H ) :   1.0018 B(  8-C ,  9-C ) :   0.9798 B(  8-C , 26-H ) :   1.0003
B(  8-C , 27-H ) :   1.0017 B(  9-C , 10-C ) :   0.9801 B(  9-C , 28-H ) :   0.9968
B(  9-C , 29-H ) :   0.9951 B( 10-C , 11-C ) :   0.9738 B( 10-C , 14-C ) :   1.0222
B( 11-C , 12-C ) :   1.0212 B( 11-C , 13-C ) :   1.0179 B( 12-C , 30-H ) :   0.9890
B( 12-C , 31-H ) :   0.9863 B( 12-C , 32-H ) :   0.9893 B( 13-C , 33-H ) :   0.9903
B( 13-C , 34-H ) :   0.9897 B( 13-C , 35-H ) :   0.9916 B( 14-C , 36-H ) :   0.9856
B( 14-C , 37-H ) :   0.9867 B( 14-C , 38-H ) :   0.9885

Dispersion correction           -0.057741875
FINAL SINGLE POINT ENERGY       -99.969113051970

DIPOLE MOMENT
-------------

Method             : SCF
Type of density    : Electron Density
Multiplicity       :   1
Irrep              :   0
Energy             :   -99.9113711765596548 Eh
Relativity type    :
Basis              : AO
                                X                 Y                 Z
Electronic contribution:      3.150203781       1.329393859      -4.317263776
Nuclear contribution   :     -3.169521691      -1.312415553       4.277793430
                        -----------------------------------------
Total Dipole Moment    :     -0.019317910       0.016978306      -0.039470347
                        -----------------------------------------
Magnitude (a.u.)       :      0.047110007
Magnitude (Debye)      :      0.119744122

VIBRATIONAL FREQUENCIES
-----------------------

Scaling factor for frequencies =  1.000000000  (already applied!)

     0:       0.00 cm**-1
     1:       0.00 cm**-1
     2:       0.00 cm**-1
     3:       0.00 cm**-1
     4:       0.00 cm**-1
     5:       0.00 cm**-1
     6:      73.92 cm**-1
     7:      79.31 cm**-1
     8:     137.99 cm**-1
     9:     173.87 cm**-1
    10:     214.51 cm**-1
    11:     219.46 cm**-1
    12:     232.63 cm**-1
    13:     242.60 cm**-1
    14:     251.50 cm**-1
    15:     262.97 cm**-1
    16:     271.78 cm**-1
    17:     296.56 cm**-1
    18:     320.16 cm**-1
    19:     340.30 cm**-1
    20:     361.25 cm**-1
    21:     384.13 cm**-1
    22:     413.96 cm**-1
    23:     451.35 cm**-1
    24:     462.18 cm**-1
    25:     512.34 cm**-1
    26:     530.12 cm**-1
    27:     578.75 cm**-1
    28:     601.78 cm**-1
    29:     612.81 cm**-1
    30:     699.77 cm**-1
    31:     711.67 cm**-1
    32:     741.71 cm**-1
    33:     808.42 cm**-1
    34:     817.07 cm**-1
    35:     824.60 cm**-1
    36:     877.76 cm**-1
    37:     897.70 cm**-1
    38:     929.74 cm**-1
    39:     959.89 cm**-1
    40:     977.13 cm**-1
    41:     979.57 cm**-1
    42:     990.94 cm**-1
    43:     994.52 cm**-1
    44:     996.73 cm**-1
    45:    1015.59 cm**-1
    46:    1028.71 cm**-1
    47:    1037.50 cm**-1
    48:    1070.66 cm**-1
    49:    1079.22 cm**-1
    50:    1102.12 cm**-1
    51:    1117.64 cm**-1
    52:    1130.30 cm**-1
    53:    1141.78 cm**-1
    54:    1168.32 cm**-1
    55:    1182.75 cm**-1
    56:    1194.96 cm**-1
    57:    1222.31 cm**-1
    58:    1224.57 cm**-1
    59:    1241.81 cm**-1
    60:    1258.58 cm**-1
    61:    1260.81 cm**-1
    62:    1268.76 cm**-1
    63:    1282.06 cm**-1
    64:    1304.66 cm**-1
    65:    1324.06 cm**-1
    66:    1342.75 cm**-1
    67:    1355.87 cm**-1
    68:    1368.72 cm**-1
    69:    1372.69 cm**-1
    70:    1379.01 cm**-1
    71:    1387.53 cm**-1
    72:    1392.17 cm**-1
    73:    1408.49 cm**-1
    74:    1433.95 cm**-1
    75:    1437.43 cm**-1
    76:    1442.46 cm**-1
    77:    1452.60 cm**-1
    78:    1458.57 cm**-1
    79:    1505.98 cm**-1
    80:    1510.22 cm**-1
    81:    1514.20 cm**-1
    82:    1517.86 cm**-1
    83:    1523.28 cm**-1
    84:    1524.90 cm**-1
    85:    1526.28 cm**-1
    86:    1529.00 cm**-1
    87:    1533.51 cm**-1
    88:    1540.48 cm**-1
    89:    1543.51 cm**-1
    90:    1551.03 cm**-1
    91:    1551.75 cm**-1
    92:    1797.35 cm**-1
    93:    3075.93 cm**-1
    94:    3086.53 cm**-1
    95:    3086.98 cm**-1
    96:    3091.27 cm**-1
    97:    3097.36 cm**-1
    98:    3101.86 cm**-1
    99:    3104.57 cm**-1
   100:    3110.71 cm**-1
   101:    3113.45 cm**-1
   102:    3117.20 cm**-1
   103:    3119.74 cm**-1
   104:    3129.24 cm**-1
   105:    3138.29 cm**-1
   106:    3159.83 cm**-1
   107:    3173.76 cm**-1
   108:    3174.35 cm**-1
   109:    3178.01 cm**-1
   110:    3180.28 cm**-1
   111:    3182.34 cm**-1
   112:    3184.89 cm**-1
   113:    3188.49 cm**-1
   114:    3198.21 cm**-1
   115:    3209.69 cm**-1
   116:    3213.66 cm**-1

IR SPECTRUM
-----------

 Mode   freq       eps      Int      T**2         TX        TY        TZ
       cm**-1   L/(mol*cm) km/mol    a.u.
----------------------------------------------------------------------------
  6:     73.92   0.000001    0.01  0.000005  ( 0.000723 -0.000649 -0.001910)
  7:     79.31   0.000041    0.20  0.000160  ( 0.001055 -0.001452 -0.012505)
  8:    137.99   0.000005    0.03  0.000012  ( 0.003148  0.000607 -0.001320)
  9:    173.87   0.000077    0.39  0.000138  (-0.000258  0.002066  0.011570)
 10:    214.51   0.000022    0.11  0.000033  ( 0.002334  0.000394 -0.005196)
 11:    219.46   0.000002    0.01  0.000002  (-0.000260 -0.000752 -0.001302)
 12:    232.63   0.000032    0.16  0.000042  (-0.001558  0.003052  0.005541)
 13:    242.60   0.000020    0.10  0.000026  (-0.000177 -0.003779  0.003358)
 14:    251.50   0.000004    0.02  0.000005  ( 0.001035 -0.001214 -0.001471)
 15:    262.97   0.000034    0.17  0.000040  ( 0.002345  0.005187 -0.002770)
 16:    271.78   0.000065    0.33  0.000075  ( 0.002435  0.003955 -0.007293)
 17:    296.56   0.000125    0.63  0.000131  ( 0.002213  0.005141  0.010005)
 18:    320.16   0.000026    0.13  0.000025  (-0.000104 -0.004311 -0.002507)
 19:    340.30   0.000061    0.31  0.000056  ( 0.004809  0.004600 -0.003434)
 20:    361.25   0.000121    0.61  0.000105  (-0.000431 -0.000038  0.010228)
 21:    384.13   0.000026    0.13  0.000021  ( 0.000578  0.004561  0.000363)
 22:    413.96   0.000143    0.72  0.000107  (-0.006118 -0.003243  0.007716)
 23:    451.35   0.000259    1.31  0.000179  (-0.008655 -0.002058  0.009997)
 24:    462.18   0.000017    0.09  0.000011  (-0.000643  0.000708 -0.003246)
 25:    512.34   0.000097    0.49  0.000059  (-0.003148 -0.000581 -0.006980)
 26:    530.12   0.000254    1.28  0.000149  ( 0.000232  0.002898 -0.011869)
 27:    578.75   0.000138    0.69  0.000074  ( 0.005271  0.005684 -0.003749)
 28:    601.78   0.000056    0.29  0.000029  (-0.000979 -0.004636 -0.002615)
 29:    612.81   0.000083    0.42  0.000042  (-0.002238 -0.005701  0.002179)
 30:    699.77   0.000170    0.86  0.000076  (-0.003795 -0.007453  0.002447)
 31:    711.67   0.000246    1.25  0.000108  ( 0.010218 -0.000920 -0.001677)
 32:    741.71   0.000121    0.61  0.000051  (-0.003337  0.003839  0.005023)
 33:    808.42   0.000121    0.61  0.000047  (-0.005768 -0.002428  0.002776)
 34:    817.07   0.000061    0.31  0.000023  (-0.002163 -0.001182  0.004160)
 35:    824.60   0.000250    1.26  0.000094  (-0.007667 -0.002272 -0.005526)
 36:    877.76   0.000143    0.73  0.000051  ( 0.005684  0.004076  0.001444)
 37:    897.70   0.000119    0.60  0.000041  (-0.006048  0.001470 -0.001620)
 38:    929.74   0.000055    0.28  0.000018  ( 0.003289  0.002609  0.000826)
 39:    959.89   0.000168    0.85  0.000055  (-0.006850  0.000188 -0.002774)
 40:    977.13   0.000406    2.05  0.000130  ( 0.009481  0.006094 -0.001629)
 41:    979.57   0.000106    0.53  0.000034  ( 0.001441  0.003372 -0.004503)
 42:    990.94   0.000359    1.81  0.000113  (-0.003031  0.003855 -0.009431)
 43:    994.52   0.000303    1.53  0.000095  (-0.001124 -0.008349 -0.004911)
 44:    996.73   0.000336    1.70  0.000105  (-0.009712  0.000940  0.003157)
 45:   1015.59   0.000197    0.99  0.000060  ( 0.004995  0.004227  0.004196)
 46:   1028.71   0.000304    1.54  0.000092  (-0.009510  0.001256 -0.000523)
 47:   1037.50   0.000247    1.25  0.000074  ( 0.005441  0.002002  0.006383)
 48:   1070.66   0.000034    0.17  0.000010  (-0.000275 -0.000857 -0.003014)
 49:   1079.22   0.000208    1.05  0.000060  (-0.007186  0.002766 -0.000967)
 50:   1102.12   0.000288    1.45  0.000081  (-0.007602  0.004852  0.000290)
 51:   1117.64   0.000113    0.57  0.000032  (-0.000838  0.002461 -0.004980)
 52:   1130.30   0.000352    1.78  0.000097  ( 0.007771 -0.003798 -0.004728)
 53:   1141.78   0.000750    3.79  0.000205  ( 0.013208 -0.004907 -0.002558)
 54:   1168.32   0.000244    1.24  0.000065  (-0.001802  0.005136  0.005974)
 55:   1182.75   0.000478    2.41  0.000126  ( 0.000404  0.000408 -0.011211)
 56:   1194.96   0.000179    0.90  0.000047  ( 0.000497 -0.002904 -0.006166)
 57:   1222.31   0.000310    1.57  0.000079  ( 0.000648  0.007096 -0.005326)
 58:   1224.57   0.000221    1.12  0.000056  (-0.007320  0.001314  0.001015)
 59:   1241.81   0.000778    3.93  0.000196  (-0.012705 -0.001929  0.005511)
 60:   1258.58   0.000965    4.88  0.000239  (-0.014186 -0.005728  0.002271)
 61:   1260.81   0.000171    0.87  0.000042  ( 0.006512  0.000016 -0.000031)
 62:   1268.76   0.000237    1.20  0.000058  ( 0.004900 -0.003463  0.004724)
 63:   1282.06   0.000354    1.79  0.000086  (-0.007581  0.000579  0.005331)
 64:   1304.66   0.000043    0.22  0.000010  (-0.002758  0.001193  0.001144)
 65:   1324.06   0.000519    2.62  0.000122  ( 0.006406  0.006398  0.006356)
 66:   1342.75   0.000292    1.47  0.000068  ( 0.006837  0.003124 -0.003362)
 67:   1355.87   0.000159    0.80  0.000037  ( 0.004046  0.002752  0.003561)
 68:   1368.72   0.000158    0.80  0.000036  (-0.005832 -0.001054 -0.000991)
 69:   1372.69   0.000583    2.95  0.000133  ( 0.004867  0.010436 -0.000167)
 70:   1379.01   0.000251    1.27  0.000057  ( 0.006653  0.000935 -0.003419)
 71:   1387.53   0.000276    1.40  0.000062  ( 0.002568  0.001786  0.007235)
 72:   1392.17   0.000449    2.27  0.000101  ( 0.007297  0.006679  0.001684)
 73:   1408.49   0.000422    2.13  0.000093  (-0.004539 -0.007763  0.003553)
 74:   1433.95   0.001294    6.54  0.000282  ( 0.009571  0.003819  0.013247)
 75:   1437.43   0.002633   13.31  0.000572  ( 0.005236  0.004621  0.022868)
 76:   1442.46   0.002301   11.63  0.000498  (-0.004943  0.021663  0.002023)
 77:   1452.60   0.003125   15.79  0.000671  (-0.020069 -0.004010  0.015888)
 78:   1458.57   0.000825    4.17  0.000176  ( 0.009937  0.000667 -0.008792)
 79:   1505.98   0.000523    2.64  0.000108  (-0.009306 -0.000315 -0.004662)
 80:   1510.22   0.000550    2.78  0.000114  (-0.010316  0.002028  0.001763)
 81:   1514.20   0.000428    2.16  0.000088  ( 0.003506  0.002767  0.008258)
 82:   1517.86   0.003358   16.97  0.000690  ( 0.008720  0.024668 -0.002410)
 83:   1523.28   0.001792    9.06  0.000367  (-0.011284  0.015480  0.000373)
 84:   1524.90   0.001317    6.65  0.000269  ( 0.005405  0.001651 -0.015411)
 85:   1526.28   0.000690    3.49  0.000141  (-0.008201  0.008436  0.001663)
 86:   1529.00   0.002420   12.23  0.000494  (-0.013812 -0.017411 -0.000091)
 87:   1533.51   0.000454    2.30  0.000092  ( 0.004749 -0.007738 -0.003164)
 88:   1540.48   0.000399    2.02  0.000081  ( 0.006816 -0.005784 -0.000964)
 89:   1543.51   0.001027    5.19  0.000208  (-0.010169  0.000139 -0.010213)
 90:   1551.03   0.003103   15.68  0.000624  ( 0.003317 -0.000886  0.024748)
 91:   1551.75   0.000720    3.64  0.000145  ( 0.007187 -0.008786 -0.003985)
 92:   1797.35   0.000058    0.29  0.000010  (-0.001913 -0.000866 -0.002381)
 93:   3075.93   0.006524   32.97  0.000662  ( 0.009450  0.023572  0.004112)
 94:   3086.53   0.005828   29.45  0.000589  ( 0.010344  0.018183 -0.012313)
 95:   3086.98   0.007597   38.39  0.000768  (-0.007408 -0.025858  0.006668)
 96:   3091.27   0.006592   33.31  0.000665  (-0.011331 -0.011636 -0.020043)
 97:   3097.36   0.005111   25.83  0.000515  ( 0.002252  0.006622  0.021588)
 98:   3101.86   0.005209   26.32  0.000524  ( 0.011198 -0.019782  0.002708)
 99:   3104.57   0.007253   36.65  0.000729  ( 0.019096  0.009746 -0.016412)
100:   3110.71   0.005199   26.27  0.000522  (-0.020680 -0.007631  0.005971)
101:   3113.45   0.014175   71.63  0.001421  (-0.002219  0.035478  0.012535)
102:   3117.20   0.004908   24.80  0.000491  (-0.007732  0.000027  0.020774)
103:   3119.74   0.009182   46.40  0.000918  (-0.029554  0.006004  0.002988)
104:   3129.24   0.011481   58.02  0.001145  (-0.013572  0.015548 -0.026815)
105:   3138.29   0.004100   20.72  0.000408  (-0.007983  0.014480  0.011590)
106:   3159.83   0.000688    3.48  0.000068  ( 0.006514 -0.000241 -0.005051)
107:   3173.76   0.001765    8.92  0.000174  (-0.000143  0.013012 -0.002050)
108:   3174.35   0.004262   21.54  0.000419  ( 0.007919  0.000785  0.018859)
109:   3178.01   0.007117   35.97  0.000699  (-0.026014  0.001033  0.004589)
110:   3180.28   0.005694   28.77  0.000559  (-0.019892 -0.011997  0.004368)
111:   3182.34   0.005161   26.08  0.000506  ( 0.000903 -0.022427  0.001526)
112:   3184.89   0.004776   24.14  0.000468  ( 0.011432 -0.017613  0.005201)
113:   3188.49   0.003398   17.17  0.000333  (-0.004043  0.006087  0.016709)
114:   3198.21   0.005012   25.33  0.000489  (-0.019611 -0.002396 -0.009935)
115:   3209.69   0.003289   16.62  0.000320  (-0.000148  0.001051 -0.017851)
116:   3213.66   0.002599   13.14  0.000252  ( 0.015788  0.001441  0.001031)

--------------------------
THERMOCHEMISTRY AT 298.15K
--------------------------

Temperature         ...   298.15 K
Pressure            ...     1.00 atm
Total Mass          ...   204.36 AMU
Quasi RRHO          ...     True
Cut-Off Frequency   ...     1.00 cm^-1

Throughout the following assumptions are being made:
  (1) The electronic state is orbitally nondegenerate
  (2) There are no thermally accessible electronically excited states
  (3) Hindered rotations indicated by low frequency modes are not
      treated as such but are treated as vibrations and this may
      cause some error
  (4) All equations used are the standard statistical mechanics
      equations for an ideal gas
  (5) All vibrations are strictly harmonic

freq.      73.92  E(vib)   ...       0.49
freq.      79.31  E(vib)   ...       0.49
freq.     137.99  E(vib)   ...       0.42
freq.     173.87  E(vib)   ...       0.38
freq.     214.51  E(vib)   ...       0.34
freq.     219.46  E(vib)   ...       0.33
freq.     232.63  E(vib)   ...       0.32
freq.     242.60  E(vib)   ...       0.31
freq.     251.50  E(vib)   ...       0.30
freq.     262.97  E(vib)   ...       0.29
freq.     271.78  E(vib)   ...       0.29
freq.     296.56  E(vib)   ...       0.27
freq.     320.16  E(vib)   ...       0.25
freq.     340.30  E(vib)   ...       0.23
freq.     361.25  E(vib)   ...       0.22
freq.     384.13  E(vib)   ...       0.20
freq.     413.96  E(vib)   ...       0.19
freq.     451.35  E(vib)   ...       0.16
freq.     462.18  E(vib)   ...       0.16
freq.     512.34  E(vib)   ...       0.14
freq.     530.12  E(vib)   ...       0.13
freq.     578.75  E(vib)   ...       0.11
freq.     601.78  E(vib)   ...       0.10
freq.     612.81  E(vib)   ...       0.10
freq.     699.77  E(vib)   ...       0.07
freq.     711.67  E(vib)   ...       0.07
freq.     741.71  E(vib)   ...       0.06
freq.     808.42  E(vib)   ...       0.05
freq.     817.07  E(vib)   ...       0.05
freq.     824.60  E(vib)   ...       0.04
freq.     877.76  E(vib)   ...       0.04
freq.     897.70  E(vib)   ...       0.03
freq.     929.74  E(vib)   ...       0.03
freq.     959.89  E(vib)   ...       0.03
freq.     977.13  E(vib)   ...       0.03
freq.     979.57  E(vib)   ...       0.03
freq.     990.94  E(vib)   ...       0.02
freq.     994.52  E(vib)   ...       0.02
freq.     996.73  E(vib)   ...       0.02
freq.    1015.59  E(vib)   ...       0.02
freq.    1028.71  E(vib)   ...       0.02
freq.    1037.50  E(vib)   ...       0.02
freq.    1070.66  E(vib)   ...       0.02
freq.    1079.22  E(vib)   ...       0.02
freq.    1102.12  E(vib)   ...       0.02
freq.    1117.64  E(vib)   ...       0.01
freq.    1130.30  E(vib)   ...       0.01
freq.    1141.78  E(vib)   ...       0.01
freq.    1168.32  E(vib)   ...       0.01
freq.    1182.75  E(vib)   ...       0.01
freq.    1194.96  E(vib)   ...       0.01
freq.    1222.31  E(vib)   ...       0.01
freq.    1224.57  E(vib)   ...       0.01
freq.    1241.81  E(vib)   ...       0.01
freq.    1258.58  E(vib)   ...       0.01
freq.    1260.81  E(vib)   ...       0.01
freq.    1268.76  E(vib)   ...       0.01
freq.    1282.06  E(vib)   ...       0.01
freq.    1304.66  E(vib)   ...       0.01
freq.    1324.06  E(vib)   ...       0.01
freq.    1342.75  E(vib)   ...       0.01
freq.    1355.87  E(vib)   ...       0.01
freq.    1368.72  E(vib)   ...       0.01
freq.    1372.69  E(vib)   ...       0.01
freq.    1379.01  E(vib)   ...       0.01
freq.    1387.53  E(vib)   ...       0.00
freq.    1392.17  E(vib)   ...       0.00
freq.    1408.49  E(vib)   ...       0.00
freq.    1433.95  E(vib)   ...       0.00
freq.    1437.43  E(vib)   ...       0.00
freq.    1442.46  E(vib)   ...       0.00
freq.    1452.60  E(vib)   ...       0.00
freq.    1458.57  E(vib)   ...       0.00
freq.    1505.98  E(vib)   ...       0.00
freq.    1510.22  E(vib)   ...       0.00
freq.    1514.20  E(vib)   ...       0.00
freq.    1517.86  E(vib)   ...       0.00
freq.    1523.28  E(vib)   ...       0.00
freq.    1524.90  E(vib)   ...       0.00
freq.    1526.28  E(vib)   ...       0.00
freq.    1529.00  E(vib)   ...       0.00
freq.    1533.51  E(vib)   ...       0.00
freq.    1540.48  E(vib)   ...       0.00
freq.    1543.51  E(vib)   ...       0.00
freq.    1551.03  E(vib)   ...       0.00
freq.    1551.75  E(vib)   ...       0.00
freq.    1797.35  E(vib)   ...       0.00
freq.    3075.93  E(vib)   ...       0.00
freq.    3086.53  E(vib)   ...       0.00
freq.    3086.98  E(vib)   ...       0.00
freq.    3091.27  E(vib)   ...       0.00
freq.    3097.36  E(vib)   ...       0.00
freq.    3101.86  E(vib)   ...       0.00
freq.    3104.57  E(vib)   ...       0.00
freq.    3110.71  E(vib)   ...       0.00
freq.    3113.45  E(vib)   ...       0.00
freq.    3117.20  E(vib)   ...       0.00
freq.    3119.74  E(vib)   ...       0.00
freq.    3129.24  E(vib)   ...       0.00
freq.    3138.29  E(vib)   ...       0.00
freq.    3159.83  E(vib)   ...       0.00
freq.    3173.76  E(vib)   ...       0.00
freq.    3174.35  E(vib)   ...       0.00
freq.    3178.01  E(vib)   ...       0.00
freq.    3180.28  E(vib)   ...       0.00
freq.    3182.34  E(vib)   ...       0.00
freq.    3184.89  E(vib)   ...       0.00
freq.    3188.49  E(vib)   ...       0.00
freq.    3198.21  E(vib)   ...       0.00
freq.    3209.69  E(vib)   ...       0.00
freq.    3213.66  E(vib)   ...       0.00

------------
INNER ENERGY
------------

The inner energy is: U= E(el) + E(ZPE) + E(vib) + E(rot) + E(trans)
    E(el)   - is the total energy from the electronic structure calculation
              = E(kin-el) + E(nuc-el) + E(el-el) + E(nuc-nuc)
    E(ZPE)  - the the zero temperature vibrational energy from the frequency calculation
    E(vib)  - the the finite temperature correction to E(ZPE) due to population
              of excited vibrational states
    E(rot)  - is the rotational thermal energy
    E(trans)- is the translational thermal energy

Summary of contributions to the inner energy U:
Electronic energy                ...    -99.96911305 Eh
Zero point energy                ...      0.36726082 Eh     230.46 kcal/mol
Thermal vibrational correction   ...      0.01140469 Eh       7.16 kcal/mol
Thermal rotational correction    ...      0.00141627 Eh       0.89 kcal/mol
Thermal translational correction ...      0.00141627 Eh       0.89 kcal/mol
-----------------------------------------------------------------------
Total thermal energy                    -99.58761500 Eh

Summary of corrections to the electronic energy:
(perhaps to be used in another calculation)
Total thermal correction                  0.01423723 Eh       8.93 kcal/mol
Non-thermal (ZPE) correction              0.36726082 Eh     230.46 kcal/mol
-----------------------------------------------------------------------
Total correction                          0.38149806 Eh     239.39 kcal/mol

Rotational constants in cm-1:     0.033864     0.017649     0.016116

                             ****ORCA TERMINATED NORMALLY****
TOTAL RUN TIME: 0 days 0 hours 29 minutes 26 seconds 949 msec
