                         Program Version 6.0.1  -  RELEASE   -
|  1> ! wB97X-3c OPT FREQ TightSCF
|  2> %pal
|  3>   nprocs 40
|  4> end
|  5> * xyz 0 1
|  6> C      3.978569     1.318191     0.010725
|  7> C      3.028089     0.174280    -0.083680
|  8> O      3.343532    -0.941288     0.412197
|  9> O      1.779443     0.366993    -0.684845
| 10> C      0.760919    -0.635243    -0.742366
| 11> C     -0.186653    -0.378916    -1.936661
| 12> C     -1.576381    -0.248398    -1.262774
| 13> C     -1.964052    -1.672614    -0.794838
| 14> C     -1.030757    -1.901992     0.411345
| 15> C     -0.221754    -0.576353     0.472079
| 16> C     -1.269504     0.483468     0.052835
| 17> C     -0.733517     1.934483    -0.144637
| 18> C     -2.501761     0.615897     1.002285
| 19> C      0.441698    -0.353059     1.839089
| 20> H      5.021005     0.960442    -0.124777
| 21> H      3.880803     1.797359     1.006911
| 22> H      3.750506     2.066416    -0.777058
| 23> H      1.234536    -1.637278    -0.854948
| 24> H     -0.154974    -1.219444    -2.664527
| 25> H      0.076554     0.544903    -2.494239
| 26> H     -2.342724     0.237684    -1.904151
| 27> H     -3.033056    -1.718156    -0.496135
| 28> H     -1.800473    -2.436377    -1.586539
| 29> H     -0.379789    -2.790340     0.255566
| 30> H     -1.612383    -2.080929     1.340941
| 31> H     -0.389068     2.350114     0.825737
| 32> H     -1.548659     2.586727    -0.525200
| 33> H      0.098188     2.040984    -0.860546
| 34> H     -3.289363     1.226952     0.511601
| 35> H     -2.974765    -0.338212     1.296444
| 36> H     -2.206218     1.127999     1.942768
| 37> H      1.164637    -1.169492     2.046531
| 38> H     -0.320909    -0.352343     2.645695
| 39> H      0.978282     0.617542     1.865172
| 40> *
| 41>
| 42>                          ****END OF INPUT****
 Total Charge           Charge          ....    0
 Multiplicity           Mult            ....    1
 Number of Electrons    NEL             ....   80
Dispersion correction           -0.045429175
FINAL SINGLE POINT ENERGY      -112.567858379541
Dispersion correction             ... done (  0.1 sec)
Dispersion correction           -0.046460573
FINAL SINGLE POINT ENERGY      -112.591110781826
Dispersion correction             ... done (  0.1 sec)
Dispersion correction           -0.046538890
FINAL SINGLE POINT ENERGY      -112.593371532844
Dispersion correction             ... done (  0.1 sec)
FINAL SINGLE POINT ENERGY      -112.593679412513
FINAL SINGLE POINT ENERGY      -112.593600649011
FINAL SINGLE POINT ENERGY      -112.593846339500
FINAL SINGLE POINT ENERGY      -112.593862191067
FINAL SINGLE POINT ENERGY      -112.593882171101
FINAL SINGLE POINT ENERGY      -112.593905527860
FINAL SINGLE POINT ENERGY      -112.593931525191
FINAL SINGLE POINT ENERGY      -112.593969650480
FINAL SINGLE POINT ENERGY      -112.594005920486
FINAL SINGLE POINT ENERGY      -112.594045983371
FINAL SINGLE POINT ENERGY      -112.594084082791
FINAL SINGLE POINT ENERGY      -112.594112114599
Dispersion correction             ... done (  0.1 sec)
Dispersion correction           -0.046418897
FINAL SINGLE POINT ENERGY      -112.594122120601
Dispersion correction             ... done (  0.1 sec)
Dispersion correction           -0.046413747
FINAL SINGLE POINT ENERGY      -112.594124922238
Dispersion correction             ... done (  0.1 sec)
                    ***********************HURRAY********************

CARTESIAN COORDINATES (ANGSTROEM)
---------------------------------
  C      3.939570    1.207684   -0.135041
  C      2.988249    0.053393   -0.128537
  O      3.259694   -1.056427    0.241475
  O      1.790016    0.418587   -0.593773
  C      0.754112   -0.572519   -0.662984
  C     -0.144041   -0.287701   -1.874362
  C     -1.543863   -0.221150   -1.262978
  C     -1.902404   -1.642616   -0.821573
  C     -0.990068   -1.856978    0.404011
  C     -0.217853   -0.531379    0.532186
  C     -1.290488    0.497735    0.076299
  C     -0.791248    1.930095   -0.071365
  C     -2.516608    0.553473    0.980117
  C      0.429918   -0.322615    1.877108
  H      4.901261    0.886531    0.248441
  H      3.541791    2.013155    0.478200
  H      4.047047    1.588064   -1.148149
  H      1.248575   -1.537927   -0.715681
  H     -0.062465   -1.061387   -2.636313
  H      0.147120    0.653278   -2.334695
  H     -2.283761    0.246286   -1.912187
  H     -2.955194   -1.730091   -0.559311
  H     -1.714089   -2.365527   -1.614664
  H     -0.309428   -2.699648    0.284638
  H     -1.566009   -2.049596    1.307494
  H     -0.563087    2.352883    0.907496
  H     -1.573723    2.548074   -0.514026
  H      0.100344    2.027800   -0.679787
  H     -3.284650    1.178879    0.523428
  H     -2.962950   -0.415292    1.183284
  H     -2.262980    1.005876    1.938927
  H      1.147606   -1.113565    2.090910
  H     -0.319875   -0.325656    2.667742
  H      0.959478    0.628282    1.923670

 Multiplicity           Mult            ....    1
 Number of Electrons    NEL             ....   80
 Basis Dimension        Dim             ....  282

ORBITAL ENERGIES
----------------

  NO   OCC          E(Eh)            E(eV)
   0   2.0000      -1.236586       -33.6492
   1   2.0000      -1.141734       -31.0682
   2   2.0000      -1.034996       -28.1637
   3   2.0000      -0.918401       -24.9910
   4   2.0000      -0.903513       -24.5858
   5   2.0000      -0.900568       -24.5057
   6   2.0000      -0.873057       -23.7571
   7   2.0000      -0.814074       -22.1521
   8   2.0000      -0.809308       -22.0224
   9   2.0000      -0.771186       -20.9850
  10   2.0000      -0.753063       -20.4919
  11   2.0000      -0.697187       -18.9714
  12   2.0000      -0.674085       -18.3428
  13   2.0000      -0.638574       -17.3765
  14   2.0000      -0.615469       -16.7478
  15   2.0000      -0.604352       -16.4452
  16   2.0000      -0.603987       -16.4353
  17   2.0000      -0.588270       -16.0076
  18   2.0000      -0.578445       -15.7403
  19   2.0000      -0.571979       -15.5643
  20   2.0000      -0.549667       -14.9572
  21   2.0000      -0.530557       -14.4372
  22   2.0000      -0.524511       -14.2727
  23   2.0000      -0.516084       -14.0434
  24   2.0000      -0.507347       -13.8056
  25   2.0000      -0.503936       -13.7128
  26   2.0000      -0.498416       -13.5626
  27   2.0000      -0.491455       -13.3732
  28   2.0000      -0.482906       -13.1405
  29   2.0000      -0.478529       -13.0214
  30   2.0000      -0.461834       -12.5671
  31   2.0000      -0.449072       -12.2199
  32   2.0000      -0.443364       -12.0646
  33   2.0000      -0.441020       -12.0008
  34   2.0000      -0.428754       -11.6670
  35   2.0000      -0.419212       -11.4073
  36   2.0000      -0.410580       -11.1724
  37   2.0000      -0.395881       -10.7725
  38   2.0000      -0.387197       -10.5362
  39   2.0000      -0.377894       -10.2830
  40   0.0000       0.084821         2.3081
  41   0.0000       0.092026         2.5041
  42   0.0000       0.093306         2.5390
  43   0.0000       0.097475         2.6524
  44   0.0000       0.105952         2.8831

MULLIKEN ATOMIC CHARGES
-----------------------
   0 C :   -0.057242
   1 C :    0.232325
   2 O :   -0.325261
   3 O :   -0.263409
   4 C :    0.097379
   5 C :    0.005663
   6 C :   -0.020536
   7 C :   -0.036127
   8 C :   -0.007729
   9 C :   -0.144570
  10 C :   -0.180097
  11 C :    0.001674
  12 C :   -0.004053
  13 C :   -0.000157
  14 H :    0.055471
  15 H :    0.048148
  16 H :    0.055060
  17 H :    0.053893
  18 H :    0.035240
  19 H :    0.041277
  20 H :    0.033977
  21 H :    0.034275
  22 H :    0.029349
  23 H :    0.037777
  24 H :    0.029016
  25 H :    0.022109
  26 H :    0.026387
  27 H :    0.030972
  28 H :    0.029128
  29 H :    0.013641
  30 H :    0.026035
  31 H :    0.052088
  32 H :    0.025879
  33 H :    0.022420
Sum of atomic charges:    0.0000000

LOEWDIN ATOMIC CHARGES
----------------------
   0 C :   -0.083356
   1 C :   -0.057609
   2 O :   -0.141612
   3 O :   -0.005830
   4 C :    0.006710
   5 C :   -0.053800
   6 C :   -0.046923
   7 C :   -0.065253
   8 C :   -0.054749
   9 C :   -0.053626
  10 C :   -0.057860
  11 C :   -0.097987
  12 C :   -0.098171
  13 C :   -0.100630
  14 H :    0.061251
  15 H :    0.059314
  16 H :    0.061022
  17 H :    0.044155
  18 H :    0.042917
  19 H :    0.046306
  20 H :    0.039065
  21 H :    0.038609
  22 H :    0.039565
  23 H :    0.042177
  24 H :    0.040449
  25 H :    0.043683
  26 H :    0.044820
  27 H :    0.036278
  28 H :    0.046992
  29 H :    0.039364
  30 H :    0.044347
  31 H :    0.052896
  32 H :    0.045481
  33 H :    0.042006

  Mayer bond orders larger than 0.100000
B(  0-C ,  1-C ) :   1.0469 B(  0-C , 14-H ) :   0.9868 B(  0-C , 15-H ) :   0.9754
B(  0-C , 16-H ) :   0.9727 B(  1-C ,  2-O ) :   1.9280 B(  1-C ,  3-O ) :   1.1550
B(  3-O ,  4-C ) :   0.8839 B(  4-C ,  5-C ) :   0.9931 B(  4-C ,  9-C ) :   0.9765
B(  4-C , 17-H ) :   1.0013 B(  5-C ,  6-C ) :   0.9946 B(  5-C , 18-H ) :   0.9976
B(  5-C , 19-H ) :   0.9905 B(  6-C ,  7-C ) :   0.9911 B(  6-C , 10-C ) :   0.9715
B(  6-C , 20-H ) :   1.0003 B(  7-C ,  8-C ) :   0.9784 B(  7-C , 21-H ) :   1.0020
B(  7-C , 22-H ) :   1.0004 B(  8-C ,  9-C ) :   0.9980 B(  8-C , 23-H ) :   0.9956
B(  8-C , 24-H ) :   0.9984 B(  9-C , 10-C ) :   0.9611 B(  9-C , 13-C ) :   1.0351
B( 10-C , 11-C ) :   1.0282 B( 10-C , 12-C ) :   1.0249 B( 11-C , 25-H ) :   0.9886
B( 11-C , 26-H ) :   0.9878 B( 11-C , 27-H ) :   0.9857 B( 12-C , 28-H ) :   0.9890
B( 12-C , 29-H ) :   0.9903 B( 12-C , 30-H ) :   0.9897 B( 13-C , 31-H ) :   0.9785
B( 13-C , 32-H ) :   0.9859 B( 13-C , 33-H ) :   0.9863

Dispersion correction           -0.046407373
FINAL SINGLE POINT ENERGY      -112.594125621206

DIPOLE MOMENT
-------------

Method             : SCF
Type of density    : Electron Density
Multiplicity       :   1
Irrep              :   0
Energy             :  -112.5477182481210860 Eh
Relativity type    :
Basis              : AO
                                X                 Y                 Z
Electronic contribution:      6.480381931      -4.071702690      -4.042167377
Nuclear contribution   :     -6.985977368       4.682893067       3.788259084
                        -----------------------------------------
Total Dipole Moment    :     -0.505595437       0.611190376      -0.253908293
                        -----------------------------------------
Magnitude (a.u.)       :      0.832856436
Magnitude (Debye)      :      2.116952824

VIBRATIONAL FREQUENCIES
-----------------------

Scaling factor for frequencies =  1.000000000  (already applied!)

     0:       0.00 cm**-1
     1:       0.00 cm**-1
     2:       0.00 cm**-1
     3:       0.00 cm**-1
     4:       0.00 cm**-1
     5:       0.00 cm**-1
     6:      51.89 cm**-1
     7:      63.41 cm**-1
     8:      77.19 cm**-1
     9:      88.58 cm**-1
    10:     164.04 cm**-1
    11:     203.90 cm**-1
    12:     227.31 cm**-1
    13:     242.58 cm**-1
    14:     253.04 cm**-1
    15:     263.82 cm**-1
    16:     279.19 cm**-1
    17:     289.21 cm**-1
    18:     311.79 cm**-1
    19:     360.10 cm**-1
    20:     403.83 cm**-1
    21:     408.36 cm**-1
    22:     438.14 cm**-1
    23:     471.78 cm**-1
    24:     509.24 cm**-1
    25:     554.08 cm**-1
    26:     600.59 cm**-1
    27:     621.91 cm**-1
    28:     650.39 cm**-1
    29:     666.99 cm**-1
    30:     685.10 cm**-1
    31:     776.59 cm**-1
    32:     827.12 cm**-1
    33:     879.64 cm**-1
    34:     901.39 cm**-1
    35:     913.23 cm**-1
    36:     944.59 cm**-1
    37:     969.80 cm**-1
    38:     976.43 cm**-1
    39:     985.59 cm**-1
    40:     990.88 cm**-1
    41:    1007.61 cm**-1
    42:    1015.36 cm**-1
    43:    1034.57 cm**-1
    44:    1054.04 cm**-1
    45:    1071.17 cm**-1
    46:    1085.82 cm**-1
    47:    1094.48 cm**-1
    48:    1120.90 cm**-1
    49:    1136.64 cm**-1
    50:    1167.54 cm**-1
    51:    1200.94 cm**-1
    52:    1229.05 cm**-1
    53:    1238.48 cm**-1
    54:    1252.55 cm**-1
    55:    1264.53 cm**-1
    56:    1282.46 cm**-1
    57:    1317.32 cm**-1
    58:    1322.26 cm**-1
    59:    1328.48 cm**-1
    60:    1342.22 cm**-1
    61:    1356.55 cm**-1
    62:    1365.59 cm**-1
    63:    1385.75 cm**-1
    64:    1403.94 cm**-1
    65:    1437.13 cm**-1
    66:    1440.78 cm**-1
    67:    1447.69 cm**-1
    68:    1457.96 cm**-1
    69:    1463.80 cm**-1
    70:    1501.43 cm**-1
    71:    1508.69 cm**-1
    72:    1511.51 cm**-1
    73:    1513.49 cm**-1
    74:    1524.51 cm**-1
    75:    1530.24 cm**-1
    76:    1532.79 cm**-1
    77:    1538.10 cm**-1
    78:    1545.49 cm**-1
    79:    1555.71 cm**-1
    80:    1563.50 cm**-1
    81:    1872.20 cm**-1
    82:    3101.33 cm**-1
    83:    3101.67 cm**-1
    84:    3106.75 cm**-1
    85:    3121.44 cm**-1
    86:    3131.51 cm**-1
    87:    3134.76 cm**-1
    88:    3135.15 cm**-1
    89:    3154.12 cm**-1
    90:    3169.89 cm**-1
    91:    3174.49 cm**-1
    92:    3180.87 cm**-1
    93:    3181.51 cm**-1
    94:    3185.63 cm**-1
    95:    3190.91 cm**-1
    96:    3197.27 cm**-1
    97:    3199.44 cm**-1
    98:    3221.57 cm**-1
    99:    3228.30 cm**-1
   100:    3244.47 cm**-1
   101:    3263.85 cm**-1

IR SPECTRUM
-----------

 Mode   freq       eps      Int      T**2         TX        TY        TZ
       cm**-1   L/(mol*cm) km/mol    a.u.
----------------------------------------------------------------------------
  6:     51.89   0.000569    2.88  0.003424  (-0.020769  0.015677  0.052409)
  7:     63.41   0.000058    0.30  0.000287  (-0.005984 -0.009967 -0.012342)
  8:     77.19   0.000325    1.64  0.001313  ( 0.029273 -0.006060 -0.020472)
  9:     88.58   0.000269    1.36  0.000947  (-0.003120 -0.007048 -0.029791)
 10:    164.04   0.000154    0.78  0.000293  (-0.016078  0.003768 -0.004544)
 11:    203.90   0.000164    0.83  0.000250  (-0.014955  0.004651  0.002257)
 12:    227.31   0.000542    2.74  0.000744  ( 0.026852 -0.004761  0.000248)
 13:    242.58   0.000314    1.59  0.000404  (-0.019046  0.004400 -0.004669)
 14:    253.04   0.000136    0.69  0.000168  ( 0.012683  0.000773 -0.002537)
 15:    263.82   0.000139    0.70  0.000164  ( 0.008037  0.001033  0.009925)
 16:    279.19   0.000271    1.37  0.000302  ( 0.008610 -0.011336  0.009988)
 17:    289.21   0.000439    2.22  0.000474  (-0.020218  0.000951  0.008007)
 18:    311.79   0.000241    1.22  0.000241  (-0.011256 -0.003359 -0.010144)
 19:    360.10   0.000177    0.89  0.000153  (-0.007759  0.007661 -0.005869)
 20:    403.83   0.000114    0.57  0.000088  (-0.003991  0.000020 -0.008481)
 21:    408.36   0.000032    0.16  0.000024  (-0.003938  0.000031 -0.002978)
 22:    438.14   0.000048    0.24  0.000034  (-0.000139  0.005710 -0.001251)
 23:    471.78   0.000552    2.79  0.000365  ( 0.015500  0.008279  0.007515)
 24:    509.24   0.000169    0.85  0.000104  (-0.007688 -0.004695  0.004746)
 25:    554.08   0.000265    1.34  0.000149  (-0.011542 -0.002893 -0.002797)
 26:    600.59   0.000473    2.39  0.000246  (-0.013796 -0.006002  0.004426)
 27:    621.91   0.001158    5.85  0.000581  ( 0.005585 -0.007512 -0.022212)
 28:    650.39   0.000032    0.16  0.000016  (-0.000353 -0.003918 -0.000306)
 29:    666.99   0.001630    8.24  0.000763  (-0.023673 -0.013629  0.004082)
 30:    685.10   0.000213    1.08  0.000097  (-0.002443  0.000344 -0.009534)
 31:    776.59   0.000175    0.88  0.000070  (-0.000209 -0.008008  0.002473)
 32:    827.12   0.000638    3.22  0.000241  (-0.009261  0.008924  0.008670)
 33:    879.64   0.000477    2.41  0.000169  ( 0.005597  0.011555 -0.002090)
 34:    901.39   0.000343    1.73  0.000119  ( 0.002117  0.004456 -0.009718)
 35:    913.23   0.000162    0.82  0.000055  ( 0.003362  0.005757 -0.003282)
 36:    944.59   0.000434    2.19  0.000143  ( 0.004638  0.009305 -0.005941)
 37:    969.80   0.000679    3.43  0.000219  (-0.011060  0.004469 -0.008732)
 38:    976.43   0.000588    2.97  0.000188  (-0.010606  0.005242  0.006915)
 39:    985.59   0.000220    1.11  0.000070  (-0.006763 -0.004794  0.000903)
 40:    990.88   0.001033    5.22  0.000325  (-0.001155 -0.016395 -0.007425)
 41:   1007.61   0.000867    4.38  0.000269  ( 0.001620 -0.013098  0.009720)
 42:   1015.36   0.000989    5.00  0.000304  ( 0.013758 -0.002005 -0.010516)
 43:   1034.57   0.000211    1.07  0.000064  ( 0.004501  0.006191 -0.002266)
 44:   1054.04   0.001647    8.32  0.000488  ( 0.021705  0.001904 -0.003600)
 45:   1071.17   0.000017    0.09  0.000005  ( 0.000441 -0.001672  0.001440)
 46:   1085.82   0.004914   24.83  0.001412  (-0.036255 -0.000422 -0.009887)
 47:   1094.48   0.001853    9.36  0.000528  (-0.010030  0.005364  0.019971)
 48:   1120.90   0.021551  108.91  0.006000  ( 0.074457  0.017631  0.012044)
 49:   1136.64   0.001300    6.57  0.000357  (-0.012095 -0.014440  0.001485)
 50:   1167.54   0.002912   14.72  0.000778  ( 0.022064  0.017063  0.000576)
 51:   1200.94   0.000146    0.74  0.000038  (-0.002879  0.001966 -0.005089)
 52:   1229.05   0.001796    9.07  0.000456  (-0.021198  0.002056 -0.001524)
 53:   1238.48   0.000086    0.44  0.000022  ( 0.004635 -0.000443  0.000304)
 54:   1252.55   0.003727   18.84  0.000929  (-0.029508 -0.006288 -0.004279)
 55:   1264.53   0.000363    1.83  0.000089  ( 0.004922 -0.004166 -0.006922)
 56:   1282.46   0.000765    3.87  0.000186  (-0.012205  0.006057  0.000762)
 57:   1317.32   0.003736   18.88  0.000885  ( 0.028863  0.006686  0.002685)
 58:   1322.26   0.000142    0.72  0.000033  (-0.004466 -0.003445 -0.001293)
 59:   1328.48   0.084287  425.95  0.019799  ( 0.138267  0.003155  0.025916)
 60:   1342.22   0.000153    0.77  0.000035  ( 0.004579  0.003784 -0.000422)
 61:   1356.55   0.000292    1.48  0.000067  ( 0.005577  0.000287 -0.006006)
 62:   1365.59   0.000437    2.21  0.000100  (-0.008324 -0.005295 -0.001562)
 63:   1385.75   0.001334    6.74  0.000300  ( 0.017119 -0.000698 -0.002610)
 64:   1403.94   0.000394    1.99  0.000088  ( 0.003387 -0.008719 -0.000248)
 65:   1437.13   0.017542   88.65  0.003809  (-0.058863 -0.014054 -0.012112)
 66:   1440.78   0.008419   42.55  0.001824  ( 0.040305  0.013590 -0.003798)
 67:   1447.69   0.001309    6.62  0.000282  ( 0.000251  0.010565 -0.013059)
 68:   1457.96   0.003954   19.98  0.000846  ( 0.025738 -0.010084 -0.009065)
 69:   1463.80   0.007796   39.40  0.001662  ( 0.027000  0.026812  0.014633)
 70:   1501.43   0.003472   17.54  0.000722  ( 0.001398 -0.025517  0.008277)
 71:   1508.69   0.002402   12.14  0.000497  (-0.006581  0.004121  0.020894)
 72:   1511.51   0.001072    5.42  0.000221  (-0.009323 -0.009326 -0.006892)
 73:   1513.49   0.001117    5.65  0.000230  (-0.010319 -0.010005  0.004881)
 74:   1524.51   0.000950    4.80  0.000195  ( 0.003274  0.013489  0.001355)
 75:   1530.24   0.005470   27.64  0.001116  ( 0.000249  0.014453 -0.030109)
 76:   1532.79   0.002383   12.05  0.000485  ( 0.020673 -0.006077 -0.004578)
 77:   1538.10   0.000012    0.06  0.000002  (-0.000938  0.000659 -0.001036)
 78:   1545.49   0.000373    1.88  0.000075  ( 0.000643  0.006207 -0.006027)
 79:   1555.71   0.002425   12.26  0.000487  (-0.019558 -0.010024 -0.001877)
 80:   1563.50   0.001780    8.99  0.000355  (-0.000686  0.018741  0.001883)
 81:   1872.20   0.057926  292.73  0.009655  ( 0.046400 -0.081766  0.028575)
 82:   3101.33   0.003647   18.43  0.000367  ( 0.004464  0.014772 -0.011349)
 83:   3101.67   0.003970   20.06  0.000399  ( 0.013593  0.003736  0.014165)
 84:   3106.75   0.012097   61.13  0.001215  ( 0.016205 -0.025655 -0.017155)
 85:   3121.44   0.004935   24.94  0.000493  ( 0.012345 -0.000188  0.018464)
 86:   3131.51   0.008668   43.80  0.000864  ( 0.008525  0.027467 -0.006057)
 87:   3134.76   0.000418    2.11  0.000042  (-0.002676 -0.005487 -0.002088)
 88:   3135.15   0.004187   21.16  0.000417  ( 0.011081 -0.001119 -0.017110)
 89:   3154.12   0.009098   45.98  0.000900  (-0.018654  0.002808 -0.023329)
 90:   3169.89   0.000090    0.45  0.000009  ( 0.001978 -0.000770  0.002086)
 91:   3174.49   0.001021    5.16  0.000100  ( 0.004870 -0.002398  0.008423)
 92:   3180.87   0.006541   33.05  0.000642  ( 0.017055 -0.002441  0.018570)
 93:   3181.51   0.001143    5.78  0.000112  ( 0.009377 -0.000259 -0.004913)
 94:   3185.63   0.004387   22.17  0.000430  (-0.013280  0.009247  0.012956)
 95:   3190.91   0.004385   22.16  0.000429  (-0.016468 -0.007851  0.009800)
 96:   3197.27   0.001040    5.26  0.000102  (-0.003282  0.008957  0.003241)
 97:   3199.44   0.003973   20.08  0.000388  ( 0.001045 -0.018467 -0.006739)
 98:   3221.57   0.003678   18.59  0.000356  (-0.008396 -0.016644  0.002956)
 99:   3228.30   0.000126    0.64  0.000012  ( 0.001331 -0.001033 -0.003062)
100:   3244.47   0.001356    6.85  0.000130  ( 0.007725  0.002317 -0.008084)
101:   3263.85   0.000294    1.48  0.000028  (-0.005177 -0.000980 -0.000547)

--------------------------
THERMOCHEMISTRY AT 298.15K
--------------------------

Temperature         ...   298.15 K
Pressure            ...     1.00 atm
Total Mass          ...   196.29 AMU
Quasi RRHO          ...     True
Cut-Off Frequency   ...     1.00 cm^-1

Throughout the following assumptions are being made:
  (1) The electronic state is orbitally nondegenerate
  (2) There are no thermally accessible electronically excited states
  (3) Hindered rotations indicated by low frequency modes are not
      treated as such but are treated as vibrations and this may
      cause some error
  (4) All equations used are the standard statistical mechanics
      equations for an ideal gas
  (5) All vibrations are strictly harmonic

freq.      51.89  E(vib)   ...       0.52
freq.      63.41  E(vib)   ...       0.51
freq.      77.19  E(vib)   ...       0.49
freq.      88.58  E(vib)   ...       0.47
freq.     164.04  E(vib)   ...       0.39
freq.     203.90  E(vib)   ...       0.35
freq.     227.31  E(vib)   ...       0.33
freq.     242.58  E(vib)   ...       0.31
freq.     253.04  E(vib)   ...       0.30
freq.     263.82  E(vib)   ...       0.29
freq.     279.19  E(vib)   ...       0.28
freq.     289.21  E(vib)   ...       0.27
freq.     311.79  E(vib)   ...       0.25
freq.     360.10  E(vib)   ...       0.22
freq.     403.83  E(vib)   ...       0.19
freq.     408.36  E(vib)   ...       0.19
freq.     438.14  E(vib)   ...       0.17
freq.     471.78  E(vib)   ...       0.15
freq.     509.24  E(vib)   ...       0.14
freq.     554.08  E(vib)   ...       0.12
freq.     600.59  E(vib)   ...       0.10
freq.     621.91  E(vib)   ...       0.09
freq.     650.39  E(vib)   ...       0.08
freq.     666.99  E(vib)   ...       0.08
freq.     685.10  E(vib)   ...       0.07
freq.     776.59  E(vib)   ...       0.05
freq.     827.12  E(vib)   ...       0.04
freq.     879.64  E(vib)   ...       0.04
freq.     901.39  E(vib)   ...       0.03
freq.     913.23  E(vib)   ...       0.03
freq.     944.59  E(vib)   ...       0.03
freq.     969.80  E(vib)   ...       0.03
freq.     976.43  E(vib)   ...       0.03
freq.     985.59  E(vib)   ...       0.02
freq.     990.88  E(vib)   ...       0.02
freq.    1007.61  E(vib)   ...       0.02
freq.    1015.36  E(vib)   ...       0.02
freq.    1034.57  E(vib)   ...       0.02
freq.    1054.04  E(vib)   ...       0.02
freq.    1071.17  E(vib)   ...       0.02
freq.    1085.82  E(vib)   ...       0.02
freq.    1094.48  E(vib)   ...       0.02
freq.    1120.90  E(vib)   ...       0.01
freq.    1136.64  E(vib)   ...       0.01
freq.    1167.54  E(vib)   ...       0.01
freq.    1200.94  E(vib)   ...       0.01
freq.    1229.05  E(vib)   ...       0.01
freq.    1238.48  E(vib)   ...       0.01
freq.    1252.55  E(vib)   ...       0.01
freq.    1264.53  E(vib)   ...       0.01
freq.    1282.46  E(vib)   ...       0.01
freq.    1317.32  E(vib)   ...       0.01
freq.    1322.26  E(vib)   ...       0.01
freq.    1328.48  E(vib)   ...       0.01
freq.    1342.22  E(vib)   ...       0.01
freq.    1356.55  E(vib)   ...       0.01
freq.    1365.59  E(vib)   ...       0.01
freq.    1385.75  E(vib)   ...       0.00
freq.    1403.94  E(vib)   ...       0.00
freq.    1437.13  E(vib)   ...       0.00
freq.    1440.78  E(vib)   ...       0.00
freq.    1447.69  E(vib)   ...       0.00
freq.    1457.96  E(vib)   ...       0.00
freq.    1463.80  E(vib)   ...       0.00
freq.    1501.43  E(vib)   ...       0.00
freq.    1508.69  E(vib)   ...       0.00
freq.    1511.51  E(vib)   ...       0.00
freq.    1513.49  E(vib)   ...       0.00
freq.    1524.51  E(vib)   ...       0.00
freq.    1530.24  E(vib)   ...       0.00
freq.    1532.79  E(vib)   ...       0.00
freq.    1538.10  E(vib)   ...       0.00
freq.    1545.49  E(vib)   ...       0.00
freq.    1555.71  E(vib)   ...       0.00
freq.    1563.50  E(vib)   ...       0.00
freq.    1872.20  E(vib)   ...       0.00
freq.    3101.33  E(vib)   ...       0.00
freq.    3101.67  E(vib)   ...       0.00
freq.    3106.75  E(vib)   ...       0.00
freq.    3121.44  E(vib)   ...       0.00
freq.    3131.51  E(vib)   ...       0.00
freq.    3134.76  E(vib)   ...       0.00
freq.    3135.15  E(vib)   ...       0.00
freq.    3154.12  E(vib)   ...       0.00
freq.    3169.89  E(vib)   ...       0.00
freq.    3174.49  E(vib)   ...       0.00
freq.    3180.87  E(vib)   ...       0.00
freq.    3181.51  E(vib)   ...       0.00
freq.    3185.63  E(vib)   ...       0.00
freq.    3190.91  E(vib)   ...       0.00
freq.    3197.27  E(vib)   ...       0.00
freq.    3199.44  E(vib)   ...       0.00
freq.    3221.57  E(vib)   ...       0.00
freq.    3228.30  E(vib)   ...       0.00
freq.    3244.47  E(vib)   ...       0.00
freq.    3263.85  E(vib)   ...       0.00

------------
INNER ENERGY
------------

The inner energy is: U= E(el) + E(ZPE) + E(vib) + E(rot) + E(trans)
    E(el)   - is the total energy from the electronic structure calculation
              = E(kin-el) + E(nuc-el) + E(el-el) + E(nuc-nuc)
    E(ZPE)  - the the zero temperature vibrational energy from the frequency calculation
    E(vib)  - the the finite temperature correction to E(ZPE) due to population
              of excited vibrational states
    E(rot)  - is the rotational thermal energy
    E(trans)- is the translational thermal energy

Summary of contributions to the inner energy U:
Electronic energy                ...   -112.59412562 Eh
Zero point energy                ...      0.31096977 Eh     195.14 kcal/mol
Thermal vibrational correction   ...      0.01120618 Eh       7.03 kcal/mol
Thermal rotational correction    ...      0.00141627 Eh       0.89 kcal/mol
Thermal translational correction ...      0.00141627 Eh       0.89 kcal/mol
-----------------------------------------------------------------------
Total thermal energy                   -112.26911713 Eh

Summary of corrections to the electronic energy:
(perhaps to be used in another calculation)
Total thermal correction                  0.01403872 Eh       8.81 kcal/mol
Non-thermal (ZPE) correction              0.31096977 Eh     195.14 kcal/mol
-----------------------------------------------------------------------
Total correction                          0.32500849 Eh     203.95 kcal/mol

--------
ENTHALPY
--------

The enthalpy is H = U + kB*T
                kB is Boltzmann's constant
Total thermal energy              ...   -112.26911713 Eh
Thermal Enthalpy correction       ...      0.00094421 Eh       0.59 kcal/mol
-----------------------------------------------------------------------
Total Enthalpy                    ...   -112.26817292 Eh

Note: Only C1 symmetry has been detected, increase convergence thresholds
      if your molecule has a higher symmetry. Symmetry factor of 1.0 is

Rotational constants in cm-1:     0.041874     0.017078     0.016495

                             ****ORCA TERMINATED NORMALLY****
TOTAL RUN TIME: 0 days 0 hours 31 minutes 34 seconds 339 msec
