                         Program Version 6.0.1  -  RELEASE   -
|  1> ! wB97X-3c OPT FREQ TightSCF
|  2> %pal
|  3>   nprocs 40
|  4> end
|  5> * xyz 0 1
|  6> C      3.879078    -0.213128     0.396356
|  7> C      2.416811    -0.057345     0.101269
|  8> C      1.763240     1.049370     0.483658
|  9> C      0.310024     1.240672     0.136178
| 10> C     -0.458633    -0.104921     0.181232
| 11> C      0.335512    -1.156477    -0.577426
| 12> C      1.673102    -1.155130    -0.553603
| 13> C     -1.918749     0.007467    -0.361465
| 14> C     -2.664815     1.231938     0.199762
| 15> C     -2.735563    -1.256228    -0.030229
| 16> H      4.014649    -0.482649     1.464707
| 17> H      4.419471     0.735009     0.187830
| 18> H      4.325995    -1.010655    -0.234029
| 19> H      2.286938     1.842986     1.003717
| 20> H     -0.124669     1.961467     0.860626
| 21> H      0.245164     1.677013    -0.884373
| 22> H     -0.501285    -0.422077     1.247642
| 23> H     -0.164318    -1.947878    -1.118593
| 24> H      2.214366    -1.956739    -1.040744
| 25> H     -1.882849     0.115819    -1.468664
| 26> H     -3.729518     1.220118    -0.117882
| 27> H     -2.225441     2.173162    -0.191336
| 28> H     -2.624449     1.239132     1.310239
| 29> H     -3.771364    -1.158914    -0.420315
| 30> H     -2.784520    -1.412055     1.068950
| 31> H     -2.298178    -2.159956    -0.498349
| 32> *
| 33>
| 34>                          ****END OF INPUT****
 Total Charge           Charge          ....    0
 Multiplicity           Mult            ....    1
 Number of Electrons    NEL             ....   56
Dispersion correction           -0.029975219
FINAL SINGLE POINT ENERGY       -66.596927842394
Dispersion correction             ... done (  0.1 sec)
Dispersion correction           -0.030349508
FINAL SINGLE POINT ENERGY       -66.603838634864
Dispersion correction             ... done (  0.1 sec)
Dispersion correction           -0.030389894
FINAL SINGLE POINT ENERGY       -66.604595224332
Dispersion correction             ... done (  0.1 sec)
FINAL SINGLE POINT ENERGY       -66.605237671423
FINAL SINGLE POINT ENERGY       -66.605900532673
FINAL SINGLE POINT ENERGY       -66.606394051006
FINAL SINGLE POINT ENERGY       -66.606682754041
Dispersion correction             ... done (  0.1 sec)
Dispersion correction           -0.030383798
FINAL SINGLE POINT ENERGY       -66.606763558789
Dispersion correction             ... done (  0.1 sec)
Dispersion correction           -0.030387463
FINAL SINGLE POINT ENERGY       -66.606773054289
Dispersion correction             ... done (  0.1 sec)
                    ***********************HURRAY********************

CARTESIAN COORDINATES (ANGSTROEM)
---------------------------------
  C      3.855992   -0.249561    0.402574
  C      2.400811   -0.048002    0.132935
  C      1.747638    1.078177    0.408773
  C      0.295378    1.239742    0.073001
  C     -0.467495   -0.074130    0.177136
  C      0.326556   -1.157247   -0.500951
  C      1.655315   -1.138988   -0.502424
  C     -1.905361    0.009691   -0.349278
  C     -2.645849    1.228377    0.180110
  C     -2.693592   -1.245538   -0.004533
  H      4.014443   -1.100854    1.065497
  H      4.299691    0.629907    0.864006
  H      4.394786   -0.458450   -0.522609
  H      2.275057    1.922406    0.836949
  H     -0.150119    1.984372    0.729358
  H      0.209322    1.632002   -0.949077
  H     -0.524415   -0.337594    1.244037
  H     -0.197097   -1.982000   -0.965609
  H      2.214168   -1.942326   -0.967229
  H     -1.851148    0.094421   -1.440019
  H     -3.686971    1.210913   -0.141285
  H     -2.211596    2.161861   -0.171386
  H     -2.638436    1.242195    1.272002
  H     -3.695286   -1.201086   -0.431123
  H     -2.798562   -1.343674    1.077470
  H     -2.223228   -2.154613   -0.373169

 Multiplicity           Mult            ....    1
 Number of Electrons    NEL             ....   56
 Basis Dimension        Dim             ....  210

ORBITAL ENERGIES
----------------

  NO   OCC          E(Eh)            E(eV)
   0   2.0000      -0.995836       -27.0981
   1   2.0000      -0.947542       -25.7839
   2   2.0000      -0.889519       -24.2050
   3   2.0000      -0.878664       -23.9097
   4   2.0000      -0.818526       -22.2732
   5   2.0000      -0.813999       -22.1501
   6   2.0000      -0.744328       -20.2542
   7   2.0000      -0.713112       -19.4048
   8   2.0000      -0.687278       -18.7018
   9   2.0000      -0.625941       -17.0327
  10   2.0000      -0.600022       -16.3274
  11   2.0000      -0.566631       -15.4188
  12   2.0000      -0.557267       -15.1640
  13   2.0000      -0.549265       -14.9463
  14   2.0000      -0.536448       -14.5975
  15   2.0000      -0.522854       -14.2276
  16   2.0000      -0.517828       -14.0908
  17   2.0000      -0.508130       -13.8269
  18   2.0000      -0.495536       -13.4842
  19   2.0000      -0.475254       -12.9323
  20   2.0000      -0.473001       -12.8710
  21   2.0000      -0.460271       -12.5246
  22   2.0000      -0.449952       -12.2438
  23   2.0000      -0.429724       -11.6934
  24   2.0000      -0.419796       -11.4232
  25   2.0000      -0.403852       -10.9894
  26   2.0000      -0.394745       -10.7416
  27   2.0000      -0.304909        -8.2970
  28   0.0000       0.059856         1.6288
  29   0.0000       0.091757         2.4968
  30   0.0000       0.097167         2.6441
  31   0.0000       0.101123         2.7517
  32   0.0000       0.106156         2.8887

MULLIKEN ATOMIC CHARGES
-----------------------
   0 C :   -0.056006
   1 C :   -0.093617
   2 C :   -0.003618
   3 C :   -0.048074
   4 C :   -0.084706
   5 C :    0.037776
   6 C :   -0.037506
   7 C :   -0.095075
   8 C :   -0.043426
   9 C :   -0.038576
  10 H :    0.043690
  11 H :    0.027198
  12 H :    0.041685
  13 H :    0.010871
  14 H :    0.044398
  15 H :    0.043131
  16 H :    0.045410
  17 H :    0.006035
  18 H :    0.010622
  19 H :    0.032992
  20 H :    0.027690
  21 H :    0.027107
  22 H :    0.026107
  23 H :    0.029329
  24 H :    0.026744
  25 H :    0.019818
Sum of atomic charges:    0.0000000

LOEWDIN ATOMIC CHARGES
----------------------
   0 C :   -0.108165
   1 C :   -0.061439
   2 C :   -0.037416
   3 C :   -0.079154
   4 C :   -0.065143
   5 C :   -0.022402
   6 C :   -0.049207
   7 C :   -0.076251
   8 C :   -0.108469
   9 C :   -0.107007
  10 H :    0.049923
  11 H :    0.050338
  12 H :    0.049338
  13 H :    0.035557
  14 H :    0.047817
  15 H :    0.050019
  16 H :    0.051086
  17 H :    0.036273
  18 H :    0.043004
  19 H :    0.043845
  20 H :    0.045168
  21 H :    0.041923
  22 H :    0.043505
  23 H :    0.044651
  24 H :    0.043624
  25 H :    0.038584

  Mayer bond orders larger than 0.100000
B(  0-C ,  1-C ) :   1.0308 B(  0-C , 10-H ) :   0.9773 B(  0-C , 11-H ) :   0.9905
B(  0-C , 12-H ) :   0.9772 B(  1-C ,  2-C ) :   1.8431 B(  1-C ,  6-C ) :   1.1235
B(  2-C ,  3-C ) :   1.0322 B(  2-C , 13-H ) :   0.9888 B(  3-C ,  4-C ) :   0.9799
B(  3-C , 14-H ) :   0.9941 B(  3-C , 15-H ) :   0.9682 B(  4-C ,  5-C ) :   1.0217
B(  4-C ,  7-C ) :   0.9815 B(  4-C , 16-H ) :   0.9674 B(  5-C ,  6-C ) :   1.8703
B(  5-C , 17-H ) :   0.9923 B(  6-C , 18-H ) :   0.9853 B(  7-C ,  8-C ) :   1.0011
B(  7-C ,  9-C ) :   1.0020 B(  7-C , 19-H ) :   0.9910 B(  8-C , 20-H ) :   0.9951
B(  8-C , 21-H ) :   0.9951 B(  8-C , 22-H ) :   0.9881 B(  9-C , 23-H ) :   0.9941
B(  9-C , 24-H ) :   0.9895 B(  9-C , 25-H ) :   0.9968

Dispersion correction           -0.030389617
FINAL SINGLE POINT ENERGY       -66.606775811884

DIPOLE MOMENT
-------------

Method             : SCF
Type of density    : Electron Density
Multiplicity       :   1
Irrep              :   0
Energy             :   -66.5763861953509775 Eh
Relativity type    :
Basis              : AO
                                X                 Y                 Z
Electronic contribution:      7.316610390      -0.985108233      -1.213149098
Nuclear contribution   :     -7.393546272       1.028663741       1.217494881
                        -----------------------------------------
Total Dipole Moment    :     -0.076935882       0.043555508       0.004345783
                        -----------------------------------------
Magnitude (a.u.)       :      0.088516089
Magnitude (Debye)      :      0.224990017

VIBRATIONAL FREQUENCIES
-----------------------

Scaling factor for frequencies =  1.000000000  (already applied!)

     0:       0.00 cm**-1
     1:       0.00 cm**-1
     2:       0.00 cm**-1
     3:       0.00 cm**-1
     4:       0.00 cm**-1
     5:       0.00 cm**-1
     6:      71.49 cm**-1
     7:      75.89 cm**-1
     8:     177.84 cm**-1
     9:     184.80 cm**-1
    10:     215.18 cm**-1
    11:     238.06 cm**-1
    12:     267.12 cm**-1
    13:     289.68 cm**-1
    14:     332.28 cm**-1
    15:     343.60 cm**-1
    16:     385.25 cm**-1
    17:     434.46 cm**-1
    18:     451.38 cm**-1
    19:     502.96 cm**-1
    20:     604.71 cm**-1
    21:     608.53 cm**-1
    22:     700.89 cm**-1
    23:     759.65 cm**-1
    24:     826.51 cm**-1
    25:     838.79 cm**-1
    26:     905.02 cm**-1
    27:     950.83 cm**-1
    28:     968.03 cm**-1
    29:     976.29 cm**-1
    30:     993.78 cm**-1
    31:    1009.01 cm**-1
    32:    1012.20 cm**-1
    33:    1068.67 cm**-1
    34:    1082.06 cm**-1
    35:    1091.31 cm**-1
    36:    1146.31 cm**-1
    37:    1171.47 cm**-1
    38:    1194.19 cm**-1
    39:    1217.42 cm**-1
    40:    1225.93 cm**-1
    41:    1239.83 cm**-1
    42:    1266.30 cm**-1
    43:    1304.87 cm**-1
    44:    1358.17 cm**-1
    45:    1375.80 cm**-1
    46:    1389.85 cm**-1
    47:    1410.15 cm**-1
    48:    1428.12 cm**-1
    49:    1442.08 cm**-1
    50:    1449.23 cm**-1
    51:    1454.19 cm**-1
    52:    1477.63 cm**-1
    53:    1506.41 cm**-1
    54:    1510.44 cm**-1
    55:    1515.74 cm**-1
    56:    1523.99 cm**-1
    57:    1525.97 cm**-1
    58:    1536.55 cm**-1
    59:    1545.76 cm**-1
    60:    1728.96 cm**-1
    61:    1793.50 cm**-1
    62:    3021.54 cm**-1
    63:    3051.42 cm**-1
    64:    3078.11 cm**-1
    65:    3094.24 cm**-1
    66:    3099.20 cm**-1
    67:    3100.20 cm**-1
    68:    3169.92 cm**-1
    69:    3178.05 cm**-1
    70:    3178.07 cm**-1
    71:    3183.76 cm**-1
    72:    3201.34 cm**-1
    73:    3202.38 cm**-1
    74:    3208.59 cm**-1
    75:    3230.47 cm**-1
    76:    3231.77 cm**-1
    77:    3259.16 cm**-1

IR SPECTRUM
-----------

 Mode   freq       eps      Int      T**2         TX        TY        TZ
       cm**-1   L/(mol*cm) km/mol    a.u.
----------------------------------------------------------------------------
  6:     71.49   0.000016    0.08  0.000068  (-0.003033  0.004691 -0.006060)
  7:     75.89   0.000009    0.04  0.000036  (-0.000261  0.001083 -0.005895)
  8:    177.84   0.000075    0.38  0.000132  (-0.003646 -0.003219  0.010421)
  9:    184.80   0.000030    0.15  0.000051  (-0.001546  0.005530  0.004204)
 10:    215.18   0.000002    0.01  0.000003  (-0.000805  0.001425 -0.000756)
 11:    238.06   0.000445    2.25  0.000583  (-0.004088 -0.011590  0.020778)
 12:    267.12   0.000076    0.39  0.000089  ( 0.001774  0.008694 -0.003252)
 13:    289.68   0.000161    0.82  0.000174  (-0.004811  0.003797  0.011675)
 14:    332.28   0.000064    0.32  0.000060  ( 0.001145 -0.000194 -0.007667)
 15:    343.60   0.000079    0.40  0.000072  ( 0.004765 -0.006735 -0.001885)
 16:    385.25   0.001362    6.88  0.001103  ( 0.013677  0.015860 -0.025777)
 17:    434.46   0.000054    0.27  0.000039  ( 0.005952  0.001690 -0.000854)
 18:    451.38   0.000155    0.78  0.000107  (-0.000856 -0.001232  0.010243)
 19:    502.96   0.000891    4.50  0.000553  ( 0.009020  0.016609 -0.013986)
 20:    604.71   0.000009    0.04  0.000004  (-0.000291 -0.001820  0.001016)
 21:    608.53   0.001189    6.01  0.000609  (-0.001857 -0.013487  0.020595)
 22:    700.89   0.000884    4.47  0.000393  (-0.007535  0.000634 -0.018336)
 23:    759.65   0.004837   24.44  0.001987  ( 0.000140 -0.027577  0.035022)
 24:    826.51   0.000365    1.84  0.000138  ( 0.001328  0.009977 -0.006034)
 25:    838.79   0.003236   16.35  0.001204  ( 0.010437  0.012472 -0.030648)
 26:    905.02   0.000186    0.94  0.000064  ( 0.002381  0.001027  0.007578)
 27:    950.83   0.000280    1.41  0.000092  (-0.005429  0.007888 -0.000219)
 28:    968.03   0.002850   14.40  0.000919  (-0.028548 -0.007735 -0.006628)
 29:    976.29   0.000036    0.18  0.000012  ( 0.001982 -0.002642  0.000825)
 30:    993.78   0.000301    1.52  0.000094  ( 0.002783  0.009154  0.001707)
 31:   1009.01   0.000642    3.25  0.000199  (-0.012928 -0.004487 -0.003381)
 32:   1012.20   0.000199    1.00  0.000061  (-0.003710 -0.004131 -0.005518)
 33:   1068.67   0.000600    3.03  0.000175  (-0.000699 -0.012515 -0.004256)
 34:   1082.06   0.000580    2.93  0.000167  ( 0.002307 -0.012149 -0.003780)
 35:   1091.31   0.000764    3.86  0.000218  (-0.004060 -0.007636  0.011982)
 36:   1146.31   0.000499    2.52  0.000136  ( 0.010668 -0.004604  0.000865)
 37:   1171.47   0.000188    0.95  0.000050  (-0.002987  0.004399  0.004673)
 38:   1194.19   0.000328    1.66  0.000086  ( 0.007360 -0.002977  0.004754)
 39:   1217.42   0.000753    3.80  0.000193  ( 0.013790  0.001605  0.000435)
 40:   1225.93   0.001695    8.57  0.000431  ( 0.020629 -0.001622  0.001814)
 41:   1239.83   0.000050    0.25  0.000012  ( 0.001002 -0.000523 -0.003345)
 42:   1266.30   0.001091    5.51  0.000269  ( 0.007105 -0.013393 -0.006249)
 43:   1304.87   0.000554    2.80  0.000132  (-0.011359 -0.001547 -0.001003)
 44:   1358.17   0.000411    2.08  0.000094  ( 0.009317  0.001267  0.002464)
 45:   1375.80   0.000385    1.95  0.000087  ( 0.009226 -0.001399  0.000589)
 46:   1389.85   0.000664    3.35  0.000149  (-0.011067 -0.004936  0.001467)
 47:   1410.15   0.000131    0.66  0.000029  ( 0.000972  0.005022 -0.001662)
 48:   1428.12   0.000055    0.28  0.000012  ( 0.002067 -0.002767 -0.000097)
 49:   1442.08   0.003320   16.78  0.000718  (-0.002242 -0.026414 -0.003964)
 50:   1449.23   0.000310    1.57  0.000067  ( 0.003669 -0.003487  0.006421)
 51:   1454.19   0.003367   17.02  0.000723  ( 0.024921  0.003173 -0.009562)
 52:   1477.63   0.000797    4.03  0.000168  ( 0.010463  0.002634  0.007202)
 53:   1506.41   0.001389    7.02  0.000288  ( 0.005096 -0.015552  0.004457)
 54:   1510.44   0.001875    9.47  0.000387  ( 0.003092  0.007928 -0.017745)
 55:   1515.74   0.000208    1.05  0.000043  (-0.001010 -0.004325  0.004800)
 56:   1523.99   0.000932    4.71  0.000191  (-0.000097 -0.012951 -0.004796)
 57:   1525.97   0.001754    8.86  0.000359  ( 0.004633  0.016554  0.007950)
 58:   1536.55   0.001144    5.78  0.000232  (-0.010568  0.004236  0.010136)
 59:   1545.76   0.003623   18.31  0.000731  ( 0.013732 -0.002937  0.023114)
 60:   1728.96   0.000133    0.67  0.000024  ( 0.003133 -0.003009 -0.002264)
 61:   1793.50   0.000751    3.79  0.000131  (-0.010057  0.005422  0.000263)
 62:   3021.54   0.003062   15.47  0.000316  (-0.006867 -0.002244  0.016249)
 63:   3051.42   0.006996   35.35  0.000715  (-0.008068  0.019773 -0.016106)
 64:   3078.11   0.005436   27.47  0.000551  ( 0.002132  0.004230 -0.022994)
 65:   3094.24   0.005443   27.50  0.000549  ( 0.009917 -0.019906 -0.007369)
 66:   3099.20   0.008200   41.44  0.000826  ( 0.028305 -0.004898  0.000748)
 67:   3100.20   0.005241   26.49  0.000528  (-0.016302 -0.012486  0.010292)
 68:   3169.92   0.003473   17.55  0.000342  ( 0.010343 -0.008826 -0.012530)
 69:   3178.05   0.000982    4.96  0.000096  ( 0.009006 -0.002063  0.003325)
 70:   3178.07   0.002523   12.75  0.000248  (-0.001123  0.005935 -0.014535)
 71:   3183.76   0.007395   37.37  0.000725  ( 0.015251  0.000289  0.022185)
 72:   3201.34   0.003310   16.73  0.000323  (-0.002334 -0.017511  0.003246)
 73:   3202.38   0.004132   20.88  0.000403  (-0.018241  0.003950  0.007368)
 74:   3208.59   0.001902    9.61  0.000185  (-0.004567 -0.011542 -0.005561)
 75:   3230.47   0.001496    7.56  0.000145  ( 0.002610 -0.010468 -0.005305)
 76:   3231.77   0.003265   16.50  0.000315  (-0.013640 -0.010177 -0.005066)
 77:   3259.16   0.003230   16.32  0.000309  (-0.000503  0.015685  0.007935)

--------------------------
THERMOCHEMISTRY AT 298.15K
--------------------------

Temperature         ...   298.15 K
Pressure            ...     1.00 atm
Total Mass          ...   136.24 AMU
Quasi RRHO          ...     True
Cut-Off Frequency   ...     1.00 cm^-1

Throughout the following assumptions are being made:
  (1) The electronic state is orbitally nondegenerate
  (2) There are no thermally accessible electronically excited states
  (3) Hindered rotations indicated by low frequency modes are not
      treated as such but are treated as vibrations and this may
      cause some error
  (4) All equations used are the standard statistical mechanics
      equations for an ideal gas
  (5) All vibrations are strictly harmonic

freq.      71.49  E(vib)   ...       0.50
freq.      75.89  E(vib)   ...       0.49
freq.     177.84  E(vib)   ...       0.37
freq.     184.80  E(vib)   ...       0.37
freq.     215.18  E(vib)   ...       0.34
freq.     238.06  E(vib)   ...       0.32
freq.     267.12  E(vib)   ...       0.29
freq.     289.68  E(vib)   ...       0.27
freq.     332.28  E(vib)   ...       0.24
freq.     343.60  E(vib)   ...       0.23
freq.     385.25  E(vib)   ...       0.20
freq.     434.46  E(vib)   ...       0.17
freq.     451.38  E(vib)   ...       0.16
freq.     502.96  E(vib)   ...       0.14
freq.     604.71  E(vib)   ...       0.10
freq.     608.53  E(vib)   ...       0.10
freq.     700.89  E(vib)   ...       0.07
freq.     759.65  E(vib)   ...       0.06
freq.     826.51  E(vib)   ...       0.04
freq.     838.79  E(vib)   ...       0.04
freq.     905.02  E(vib)   ...       0.03
freq.     950.83  E(vib)   ...       0.03
freq.     968.03  E(vib)   ...       0.03
freq.     976.29  E(vib)   ...       0.03
freq.     993.78  E(vib)   ...       0.02
freq.    1009.01  E(vib)   ...       0.02
freq.    1012.20  E(vib)   ...       0.02
freq.    1068.67  E(vib)   ...       0.02
freq.    1082.06  E(vib)   ...       0.02
freq.    1091.31  E(vib)   ...       0.02
freq.    1146.31  E(vib)   ...       0.01
freq.    1171.47  E(vib)   ...       0.01
freq.    1194.19  E(vib)   ...       0.01
freq.    1217.42  E(vib)   ...       0.01
freq.    1225.93  E(vib)   ...       0.01
freq.    1239.83  E(vib)   ...       0.01
freq.    1266.30  E(vib)   ...       0.01
freq.    1304.87  E(vib)   ...       0.01
freq.    1358.17  E(vib)   ...       0.01
freq.    1375.80  E(vib)   ...       0.01
freq.    1389.85  E(vib)   ...       0.00
freq.    1410.15  E(vib)   ...       0.00
freq.    1428.12  E(vib)   ...       0.00
freq.    1442.08  E(vib)   ...       0.00
freq.    1449.23  E(vib)   ...       0.00
freq.    1454.19  E(vib)   ...       0.00
freq.    1477.63  E(vib)   ...       0.00
freq.    1506.41  E(vib)   ...       0.00
freq.    1510.44  E(vib)   ...       0.00
freq.    1515.74  E(vib)   ...       0.00
freq.    1523.99  E(vib)   ...       0.00
freq.    1525.97  E(vib)   ...       0.00
freq.    1536.55  E(vib)   ...       0.00
freq.    1545.76  E(vib)   ...       0.00
freq.    1728.96  E(vib)   ...       0.00
freq.    1793.50  E(vib)   ...       0.00
freq.    3021.54  E(vib)   ...       0.00
freq.    3051.42  E(vib)   ...       0.00
freq.    3078.11  E(vib)   ...       0.00
freq.    3094.24  E(vib)   ...       0.00
freq.    3099.20  E(vib)   ...       0.00
freq.    3100.20  E(vib)   ...       0.00
freq.    3169.92  E(vib)   ...       0.00
freq.    3178.05  E(vib)   ...       0.00
freq.    3178.07  E(vib)   ...       0.00
freq.    3183.76  E(vib)   ...       0.00
freq.    3201.34  E(vib)   ...       0.00
freq.    3202.38  E(vib)   ...       0.00
freq.    3208.59  E(vib)   ...       0.00
freq.    3230.47  E(vib)   ...       0.00
freq.    3231.77  E(vib)   ...       0.00
freq.    3259.16  E(vib)   ...       0.00

------------
INNER ENERGY
------------

The inner energy is: U= E(el) + E(ZPE) + E(vib) + E(rot) + E(trans)
    E(el)   - is the total energy from the electronic structure calculation
              = E(kin-el) + E(nuc-el) + E(el-el) + E(nuc-nuc)
    E(ZPE)  - the the zero temperature vibrational energy from the frequency calculation
    E(vib)  - the the finite temperature correction to E(ZPE) due to population
              of excited vibrational states
    E(rot)  - is the rotational thermal energy
    E(trans)- is the translational thermal energy

Summary of contributions to the inner energy U:
Electronic energy                ...    -66.60677581 Eh
Zero point energy                ...      0.24055931 Eh     150.95 kcal/mol
Thermal vibrational correction   ...      0.00777258 Eh       4.88 kcal/mol
Thermal rotational correction    ...      0.00141627 Eh       0.89 kcal/mol
Thermal translational correction ...      0.00141627 Eh       0.89 kcal/mol
-----------------------------------------------------------------------
Total thermal energy                    -66.35561137 Eh

Summary of corrections to the electronic energy:
(perhaps to be used in another calculation)
Total thermal correction                  0.01060512 Eh       6.65 kcal/mol
Non-thermal (ZPE) correction              0.24055931 Eh     150.95 kcal/mol
-----------------------------------------------------------------------
Total correction                          0.25116444 Eh     157.61 kcal/mol

--------
ENTHALPY
--------

The enthalpy is H = U + kB*T
                kB is Boltzmann's constant
Total thermal energy              ...    -66.35561137 Eh
Thermal Enthalpy correction       ...      0.00094421 Eh       0.59 kcal/mol
-----------------------------------------------------------------------
Total Enthalpy                    ...    -66.35466717 Eh

Note: Only C1 symmetry has been detected, increase convergence thresholds
      if your molecule has a higher symmetry. Symmetry factor of 1.0 is
      used for the rotational entropy correction.

Note: Rotational entropy computed according to Herzberg
Infrared and Raman Spectra, Chapter V,1, Van Nostrand Reinhold, 1945
Point Group:  C1, Symmetry Number:   1
Rotational constants in cm-1:     0.104309     0.025104     0.021162

Vibrational entropy computed according to the QRRHO of S. Grimme
Chem.Eur.J. 2012 18 9955 using a reference frequency of 100.0 cm-1

-------
ENTROPY
-------

The entropy contributions are T*S = T*(S(el)+S(vib)+S(rot)+S(trans))
     S(el)   - electronic entropy
     S(vib)  - vibrational entropy
     S(rot)  - rotational entropy
     S(trans)- translational entropy
The entropies will be listed as multiplied by the temperature to get
units of energy

                             ****ORCA TERMINATED NORMALLY****
TOTAL RUN TIME: 0 days 0 hours 11 minutes 17 seconds 647 msec
