                         Program Version 6.0.1  -  RELEASE   -
|  1> ! wB97X-3c OPT FREQ TightSCF
|  2> %pal
|  3>   nprocs 40
|  4> end
|  5> * xyz 0 1
|  6> C      3.657178    -1.477317    -0.911349
|  7> C      2.456276    -0.642858    -0.556616
|  8> C      1.257626    -0.977964    -1.077855
|  9> C     -0.052719    -0.272867    -0.747322
| 10> C      0.271256     1.212712    -0.352731
| 11> C      1.390879     1.321584     0.700646
| 12> C      2.675983     0.627270     0.236266
| 13> C     -0.881355     2.163169    -0.033050
| 14> C     -0.699790     3.481820    -0.247189
| 15> C     -2.189928     1.710184     0.567815
| 16> C     -2.856230     0.647624    -0.295333
| 17> C     -2.498077    -0.779159     0.126361
| 18> C     -0.976371    -1.170621     0.191193
| 19> C     -0.912524    -2.657517    -0.273592
| 20> C     -0.494755    -1.176261     1.661592
| 21> H      3.522627    -2.509530    -0.524430
| 22> H      4.583257    -1.053609    -0.468127
| 23> H      3.781858    -1.513447    -2.014509
| 24> H      1.207895    -1.839736    -1.739201
| 25> H     -0.582770    -0.215814    -1.723705
| 26> H      0.719070     1.629135    -1.287522
| 27> H      1.081933     0.922191     1.680507
| 28> H      1.633536     2.391874     0.880938
| 29> H      3.246933     1.331551    -0.407272
| 30> H      3.303524     0.403151     1.125851
| 31> H      0.231623     3.860572    -0.657841
| 32> H     -1.473300     4.208369    -0.017415
| 33> H     -2.049217     1.372837     1.611648
| 34> H     -2.897422     2.566812     0.637900
| 35> H     -3.959058     0.754812    -0.191590
| 36> H     -2.636812     0.809222    -1.373588
| 37> H     -2.987273    -0.988416     1.104154
| 38> H     -3.032751    -1.429947    -0.602455
| 39> H      0.080776    -3.113152    -0.070417
| 40> H     -1.125019    -2.738526    -1.361845
| 41> H     -1.661409    -3.276946     0.268086
| 42> H     -1.028351    -1.956773     2.246967
| 43> H     -0.698296    -0.222119     2.174666
| 44> H      0.591197    -1.402310     1.720362
| 45> *
| 46>
| 47>                          ****END OF INPUT****
 Total Charge           Charge          ....    0
 Multiplicity           Mult            ....    1
 Number of Electrons    NEL             ....   84
Dispersion correction           -0.053910011
FINAL SINGLE POINT ENERGY       -99.904648509825
Dispersion correction             ... done (  0.1 sec)
Dispersion correction           -0.055150142
FINAL SINGLE POINT ENERGY       -99.917010690110
Dispersion correction             ... done (  0.1 sec)
Dispersion correction           -0.054973512
FINAL SINGLE POINT ENERGY       -99.918422486000
Dispersion correction             ... done (  0.1 sec)
FINAL SINGLE POINT ENERGY       -99.919078047844
FINAL SINGLE POINT ENERGY       -99.919390069563
FINAL SINGLE POINT ENERGY       -99.919684428342
FINAL SINGLE POINT ENERGY       -99.919984788411
FINAL SINGLE POINT ENERGY       -99.920567886598
FINAL SINGLE POINT ENERGY       -99.921326542187
FINAL SINGLE POINT ENERGY       -99.921963025347
FINAL SINGLE POINT ENERGY       -99.922558551037
FINAL SINGLE POINT ENERGY       -99.922871187143
FINAL SINGLE POINT ENERGY       -99.922927280744
Dispersion correction             ... done (  0.1 sec)
Dispersion correction           -0.055007763
FINAL SINGLE POINT ENERGY       -99.922965399338
Dispersion correction             ... done (  0.1 sec)
Dispersion correction           -0.055010762
FINAL SINGLE POINT ENERGY       -99.922972388709
Dispersion correction             ... done (  0.1 sec)
                    ***********************HURRAY********************

CARTESIAN COORDINATES (ANGSTROEM)
---------------------------------
  C      3.705463   -1.375804   -0.804596
  C      2.452927   -0.621596   -0.489950
  C      1.277633   -0.971389   -0.998314
  C     -0.029449   -0.261695   -0.756172
  C      0.312636    1.187084   -0.348880
  C      1.324417    1.245274    0.794635
  C      2.627705    0.576431    0.392814
  C     -0.827728    2.139930   -0.120587
  C     -0.829458    3.322664   -0.724042
  C     -1.964059    1.749275    0.772455
  C     -2.884363    0.757233    0.072612
  C     -2.463033   -0.712400    0.026908
  C     -0.983822   -1.142235    0.108886
  C     -0.965274   -2.567364   -0.460722
  C     -0.547223   -1.271232    1.568254
  H      4.158303   -1.774087    0.104871
  H      4.446576   -0.720394   -1.265679
  H      3.516625   -2.205461   -1.482672
  H      1.248927   -1.832011   -1.655165
  H     -0.528527   -0.189540   -1.729454
  H      0.844066    1.578211   -1.220812
  H      0.925524    0.784020    1.693322
  H      1.511246    2.290202    1.042433
  H      3.260371    1.291243   -0.143833
  H      3.201156    0.293736    1.279296
  H     -0.045153    3.607909   -1.414093
  H     -1.614322    4.046978   -0.545711
  H     -1.604972    1.353354    1.721568
  H     -2.537029    2.645038    1.011325
  H     -3.868659    0.801976    0.541522
  H     -3.028607    1.125397   -0.944421
  H     -2.970973   -1.246487    0.833456
  H     -2.877488   -1.129603   -0.893369
  H     -0.029158   -3.079781   -0.248022
  H     -1.119810   -2.567957   -1.540818
  H     -1.769266   -3.151278   -0.011709
  H     -1.114140   -2.073427    2.042771
  H     -0.720059   -0.373347    2.152631
  H      0.508998   -1.528865    1.639261

 Multiplicity           Mult            ....    1
 Number of Electrons    NEL             ....   84
 Basis Dimension        Dim             ....  315

ORBITAL ENERGIES
----------------

  NO   OCC          E(Eh)            E(eV)
   0   2.0000      -1.002672       -27.2841
   1   2.0000      -0.959482       -26.1088
   2   2.0000      -0.949203       -25.8291
   3   2.0000      -0.907009       -24.6810
   4   2.0000      -0.879340       -23.9281
   5   2.0000      -0.861548       -23.4439
   6   2.0000      -0.820229       -22.3196
   7   2.0000      -0.815301       -22.1855
   8   2.0000      -0.799592       -21.7580
   9   2.0000      -0.760208       -20.6863
  10   2.0000      -0.728876       -19.8337
  11   2.0000      -0.725978       -19.7549
  12   2.0000      -0.654926       -17.8214
  13   2.0000      -0.649901       -17.6847
  14   2.0000      -0.621821       -16.9206
  15   2.0000      -0.599790       -16.3211
  16   2.0000      -0.585291       -15.9266
  17   2.0000      -0.572313       -15.5734
  18   2.0000      -0.563166       -15.3245
  19   2.0000      -0.553683       -15.0665
  20   2.0000      -0.546809       -14.8794
  21   2.0000      -0.537257       -14.6195
  22   2.0000      -0.531474       -14.4621
  23   2.0000      -0.525360       -14.2958
  24   2.0000      -0.512591       -13.9483
  25   2.0000      -0.505102       -13.7445
  26   2.0000      -0.494208       -13.4481
  27   2.0000      -0.488001       -13.2792
  28   2.0000      -0.481452       -13.1010
  29   2.0000      -0.473799       -12.8927
  30   2.0000      -0.472925       -12.8689
  31   2.0000      -0.459928       -12.5153
  32   2.0000      -0.457194       -12.4409
  33   2.0000      -0.446535       -12.1508
  34   2.0000      -0.427680       -11.6378
  35   2.0000      -0.421155       -11.4602
  36   2.0000      -0.414029       -11.2663
  37   2.0000      -0.405159       -11.0249
  38   2.0000      -0.395219       -10.7545
  39   2.0000      -0.390994       -10.6395
  40   2.0000      -0.340377        -9.2621
  41   2.0000      -0.329543        -8.9673
  42   0.0000       0.084052         2.2872
  43   0.0000       0.087698         2.3864
  44   0.0000       0.093498         2.5442
  45   0.0000       0.097225         2.6456
  46   0.0000       0.105669         2.8754

MULLIKEN ATOMIC CHARGES
-----------------------
   0 C :   -0.047770
   1 C :   -0.065813
   2 C :    0.004754
   3 C :   -0.046734
   4 C :   -0.097645
   5 C :   -0.001405
   6 C :   -0.053088
   7 C :   -0.055061
   8 C :   -0.017227
   9 C :   -0.025793
  10 C :   -0.038098
  11 C :   -0.007088
  12 C :   -0.212848
  13 C :   -0.018614
  14 C :    0.016926
  15 H :    0.033159
  16 H :    0.034157
  17 H :    0.026043
  18 H :    0.007543
  19 H :    0.041959
  20 H :    0.037369
  21 H :    0.017816
  22 H :    0.039616
  23 H :    0.037292
  24 H :    0.034074
  25 H :    0.021520
  26 H :    0.017552
  27 H :    0.024139
  28 H :    0.029111
  29 H :    0.031189
  30 H :    0.033106
  31 H :    0.025452
  32 H :    0.026532
  33 H :    0.030777
  34 H :    0.024461
  35 H :    0.025349
  36 H :    0.025479
  37 H :    0.008501
  38 H :    0.033308
Sum of atomic charges:    0.0000000

LOEWDIN ATOMIC CHARGES
----------------------
   0 C :   -0.107574
   1 C :   -0.049259
   2 C :   -0.045354
   3 C :   -0.053588
   4 C :   -0.058136
   5 C :   -0.063829
   6 C :   -0.079316
   7 C :   -0.032316
   8 C :   -0.081476
   9 C :   -0.075625
  10 C :   -0.077914
  11 C :   -0.076801
  12 C :   -0.061326
  13 C :   -0.105765
  14 C :   -0.103995
  15 H :    0.047469
  16 H :    0.048631
  17 H :    0.049322
  18 H :    0.036765
  19 H :    0.054651
  20 H :    0.060548
  21 H :    0.035579
  22 H :    0.048841
  23 H :    0.051030
  24 H :    0.050442
  25 H :    0.031058
  26 H :    0.030727
  27 H :    0.039128
  28 H :    0.053001
  29 H :    0.047557
  30 H :    0.045285
  31 H :    0.046127
  32 H :    0.047847
  33 H :    0.042869
  34 H :    0.042245
  35 H :    0.045025
  36 H :    0.045031
  37 H :    0.028528
  38 H :    0.044567

  Mayer bond orders larger than 0.100000
B(  0-C ,  1-C ) :   1.0354 B(  0-C , 15-H ) :   0.9790 B(  0-C , 16-H ) :   0.9797
B(  0-C , 17-H ) :   0.9907 B(  1-C ,  2-C ) :   1.8934 B(  1-C ,  6-C ) :   1.0137
B(  2-C ,  3-C ) :   1.0425 B(  2-C , 18-H ) :   0.9884 B(  3-C ,  4-C ) :   0.9903
B(  3-C , 12-C ) :   0.9586 B(  3-C , 19-H ) :   0.9853 B(  4-C ,  5-C ) :   0.9561
B(  4-C ,  7-C ) :   1.0603 B(  4-C , 20-H ) :   0.9908 B(  5-C ,  6-C ) :   0.9980
B(  5-C , 21-H ) :   0.9932 B(  5-C , 22-H ) :   0.9947 B(  6-C , 23-H ) :   0.9811
B(  6-C , 24-H ) :   0.9855 B(  7-C ,  8-C ) :   1.9438 B(  7-C ,  9-C ) :   1.0116
B(  8-C , 25-H ) :   0.9838 B(  8-C , 26-H ) :   0.9844 B(  9-C , 10-C ) :   0.9722
B(  9-C , 27-H ) :   0.9822 B(  9-C , 28-H ) :   0.9962 B( 10-C , 11-C ) :   0.9938
B( 10-C , 29-H ) :   0.9993 B( 10-C , 30-H ) :   0.9941 B( 11-C , 12-C ) :   0.9880
B( 11-C , 31-H ) :   0.9957 B( 11-C , 32-H ) :   0.9988 B( 12-C , 13-C ) :   1.0148
B( 12-C , 14-C ) :   0.9956 B( 13-C , 33-H ) :   0.9917 B( 13-C , 34-H ) :   0.9927
B( 13-C , 35-H ) :   0.9927 B( 14-C , 36-H ) :   0.9892 B( 14-C , 37-H ) :   0.9945
B( 14-C , 38-H ) :   0.9874

Dispersion correction           -0.055011953
FINAL SINGLE POINT ENERGY       -99.922973164530

DIPOLE MOMENT
-------------

Method             : SCF
Type of density    : Electron Density
Multiplicity       :   1
Irrep              :   0
Energy             :   -99.8679612118034186 Eh
Relativity type    :
Basis              : AO
                                X                 Y                 Z
Electronic contribution:      0.661341894       5.755487788      -2.661694962
Nuclear contribution   :     -0.593843214      -5.910983297       2.781718196
                        -----------------------------------------
Total Dipole Moment    :      0.067498679      -0.155495510       0.120023234
                        -----------------------------------------
Magnitude (a.u.)       :      0.207702918
Magnitude (Debye)      :      0.527938860

VIBRATIONAL FREQUENCIES
-----------------------

Scaling factor for frequencies =  1.000000000  (already applied!)

     0:       0.00 cm**-1
     1:       0.00 cm**-1
     2:       0.00 cm**-1
     3:       0.00 cm**-1
     4:       0.00 cm**-1
     5:       0.00 cm**-1
     6:     -48.94 cm**-1  ***imaginary mode***
     7:      80.05 cm**-1
     8:     100.72 cm**-1
     9:     116.59 cm**-1
    10:     165.69 cm**-1
    11:     182.06 cm**-1
    12:     216.65 cm**-1
    13:     243.08 cm**-1
    14:     252.78 cm**-1
    15:     304.70 cm**-1
    16:     317.38 cm**-1
    17:     325.52 cm**-1
    18:     335.18 cm**-1
    19:     352.89 cm**-1
    20:     354.29 cm**-1
    21:     374.44 cm**-1
    22:     376.90 cm**-1
    23:     410.84 cm**-1
    24:     460.56 cm**-1
    25:     488.89 cm**-1
    26:     509.08 cm**-1
    27:     519.19 cm**-1
    28:     582.62 cm**-1
    29:     646.62 cm**-1
    30:     675.09 cm**-1
    31:     695.93 cm**-1
    32:     747.39 cm**-1
    33:     758.51 cm**-1
    34:     802.58 cm**-1
    35:     826.05 cm**-1
    36:     844.74 cm**-1
    37:     875.44 cm**-1
    38:     908.20 cm**-1
    39:     925.06 cm**-1
    40:     938.58 cm**-1
    41:     942.02 cm**-1
    42:     965.08 cm**-1
    43:     975.91 cm**-1
    44:     996.21 cm**-1
    45:    1006.75 cm**-1
    46:    1027.73 cm**-1
    47:    1038.34 cm**-1
    48:    1048.41 cm**-1
    49:    1062.93 cm**-1
    50:    1080.45 cm**-1
    51:    1084.26 cm**-1
    52:    1111.78 cm**-1
    53:    1121.35 cm**-1
    54:    1147.83 cm**-1
    55:    1177.99 cm**-1
    56:    1184.28 cm**-1
    57:    1209.28 cm**-1
    58:    1219.15 cm**-1
    59:    1242.03 cm**-1
    60:    1258.65 cm**-1
    61:    1263.25 cm**-1
    62:    1296.18 cm**-1
    63:    1305.20 cm**-1
    64:    1338.80 cm**-1
    65:    1352.67 cm**-1
    66:    1360.20 cm**-1
    67:    1373.19 cm**-1
    68:    1379.89 cm**-1
    69:    1395.01 cm**-1
    70:    1404.84 cm**-1
    71:    1416.98 cm**-1
    72:    1428.41 cm**-1
    73:    1432.70 cm**-1
    74:    1434.87 cm**-1
    75:    1436.88 cm**-1
    76:    1444.03 cm**-1
    77:    1456.66 cm**-1
    78:    1460.22 cm**-1
    79:    1488.81 cm**-1
    80:    1503.85 cm**-1
    81:    1509.84 cm**-1
    82:    1510.70 cm**-1
    83:    1517.45 cm**-1
    84:    1522.75 cm**-1
    85:    1523.52 cm**-1
    86:    1533.41 cm**-1
    87:    1535.48 cm**-1
    88:    1540.87 cm**-1
    89:    1546.74 cm**-1
    90:    1553.78 cm**-1
    91:    1760.40 cm**-1
    92:    1802.62 cm**-1
    93:    3060.86 cm**-1
    94:    3074.98 cm**-1
    95:    3083.49 cm**-1
    96:    3087.49 cm**-1
    97:    3091.20 cm**-1
    98:    3093.23 cm**-1
    99:    3101.91 cm**-1
   100:    3104.65 cm**-1
   101:    3121.96 cm**-1
   102:    3122.51 cm**-1
   103:    3130.46 cm**-1
   104:    3131.63 cm**-1
   105:    3155.10 cm**-1
   106:    3168.79 cm**-1
   107:    3174.54 cm**-1
   108:    3176.35 cm**-1
   109:    3180.63 cm**-1
   110:    3196.46 cm**-1
   111:    3200.15 cm**-1
   112:    3203.40 cm**-1
   113:    3206.94 cm**-1
   114:    3227.95 cm**-1
   115:    3228.87 cm**-1
   116:    3293.03 cm**-1

IR SPECTRUM
-----------

 Mode   freq       eps      Int      T**2         TX        TY        TZ
       cm**-1   L/(mol*cm) km/mol    a.u.
----------------------------------------------------------------------------
  7:     80.05   0.000024    0.12  0.000095  ( 0.000163  0.006448 -0.007333)
  8:    100.72   0.000018    0.09  0.000055  ( 0.001112 -0.004818  0.005571)
  9:    116.59   0.000011    0.06  0.000030  (-0.000794 -0.000156 -0.005439)
 10:    165.69   0.000078    0.39  0.000147  ( 0.008453  0.005995  0.006303)
 11:    182.06   0.000076    0.38  0.000130  (-0.001034  0.003310 -0.010848)
 12:    216.65   0.000061    0.31  0.000088  (-0.005508 -0.000622  0.007543)
 13:    243.08   0.000119    0.60  0.000153  (-0.001863 -0.012066  0.001931)
 14:    252.78   0.000104    0.52  0.000128  ( 0.000034 -0.009517  0.006134)
 15:    304.70   0.000023    0.12  0.000024  (-0.004334  0.002234 -0.000425)
 16:    317.38   0.000062    0.32  0.000061  (-0.000804  0.003145 -0.007127)
 17:    325.52   0.000020    0.10  0.000019  ( 0.001473  0.001614  0.003778)
 18:    335.18   0.000043    0.22  0.000040  (-0.004770  0.002328 -0.003459)
 19:    352.89   0.000224    1.13  0.000198  (-0.004354  0.008534 -0.010310)
 20:    354.29   0.000041    0.21  0.000036  (-0.001513  0.002830 -0.005099)
 21:    374.44   0.000173    0.87  0.000144  ( 0.004862  0.005605 -0.009430)
 22:    376.90   0.000328    1.66  0.000272  (-0.008268 -0.006561  0.012666)
 23:    410.84   0.000047    0.24  0.000036  ( 0.003896  0.002914 -0.003492)
 24:    460.56   0.000400    2.02  0.000271  ( 0.002144  0.012644 -0.010331)
 25:    488.89   0.000154    0.78  0.000098  ( 0.009344  0.002198  0.002511)
 26:    509.08   0.000280    1.41  0.000171  (-0.012522 -0.003545 -0.001436)
 27:    519.19   0.000103    0.52  0.000062  (-0.001071  0.000433 -0.007794)
 28:    582.62   0.000191    0.97  0.000102  (-0.007433 -0.002674  0.006331)
 29:    646.62   0.000889    4.49  0.000429  (-0.017898 -0.008631 -0.005867)
 30:    675.09   0.000137    0.69  0.000063  (-0.004602 -0.004943  0.004188)
 31:    695.93   0.000858    4.34  0.000385  (-0.009261 -0.010805 -0.013504)
 32:    747.39   0.000016    0.08  0.000007  (-0.000202  0.000975  0.002380)
 33:    758.51   0.000076    0.38  0.000031  ( 0.000393  0.003718 -0.004156)
 34:    802.58   0.000644    3.26  0.000250  ( 0.007912  0.008611 -0.010663)
 35:    826.05   0.000400    2.02  0.000151  (-0.001024 -0.002982 -0.011889)
 36:    844.74   0.000186    0.94  0.000069  (-0.001702  0.007759  0.002386)
 37:    875.44   0.000076    0.38  0.000027  ( 0.002259  0.001161 -0.004542)
 38:    908.20   0.001158    5.85  0.000398  ( 0.004266  0.006266 -0.018446)
 39:    925.06   0.001686    8.52  0.000569  (-0.002635  0.005331 -0.023095)
 40:    938.58   0.006897   34.86  0.002293  ( 0.029834  0.019028  0.032266)
 41:    942.02   0.001189    6.01  0.000394  ( 0.007812 -0.012835 -0.012964)
 42:    965.08   0.000054    0.27  0.000018  (-0.000801 -0.004026  0.000820)
 43:    975.91   0.000081    0.41  0.000026  ( 0.001471  0.004862  0.000503)
 44:    996.21   0.000774    3.91  0.000242  (-0.005692 -0.011320  0.009044)
 45:   1006.75   0.001058    5.35  0.000328  (-0.006464  0.016916 -0.000222)
 46:   1027.73   0.001148    5.80  0.000349  (-0.010783 -0.014522  0.004638)
 47:   1038.34   0.000372    1.88  0.000112  (-0.002623  0.010229 -0.000580)
 48:   1048.41   0.000211    1.06  0.000063  ( 0.004001  0.001117 -0.006743)
 49:   1062.93   0.000378    1.91  0.000111  ( 0.001270 -0.007433  0.007357)
 50:   1080.45   0.000227    1.15  0.000065  ( 0.001256 -0.005324  0.005961)
 51:   1084.26   0.000718    3.63  0.000207  (-0.008103 -0.004832 -0.010841)
 52:   1111.78   0.000284    1.44  0.000080  (-0.006175 -0.003546  0.005400)
 53:   1121.35   0.000479    2.42  0.000133  ( 0.010878  0.003661  0.001308)
 54:   1147.83   0.000296    1.50  0.000081  ( 0.008697  0.002203  0.000242)
 55:   1177.99   0.000417    2.11  0.000111  (-0.008463 -0.002666  0.005640)
 56:   1184.28   0.000725    3.66  0.000191  ( 0.012112  0.006097  0.002671)
 57:   1209.28   0.000854    4.32  0.000220  ( 0.001922 -0.013128  0.006663)
 58:   1219.15   0.000477    2.41  0.000122  ( 0.001770  0.008370  0.007002)
 59:   1242.03   0.000059    0.30  0.000015  ( 0.000641  0.002103  0.003173)
 60:   1258.65   0.000601    3.04  0.000149  ( 0.011756 -0.003000 -0.001386)
 61:   1263.25   0.000092    0.46  0.000023  ( 0.004403 -0.001664  0.000686)
 62:   1296.18   0.000544    2.75  0.000131  (-0.009885 -0.001686 -0.005505)
 63:   1305.20   0.000639    3.23  0.000153  (-0.008832 -0.003967  0.007679)
 64:   1338.80   0.000683    3.45  0.000159  (-0.012490 -0.000958  0.001501)
 65:   1352.67   0.000045    0.23  0.000010  ( 0.002933 -0.001288 -0.000188)
 66:   1360.20   0.000041    0.21  0.000009  ( 0.000022 -0.001969  0.002345)
 67:   1373.19   0.000287    1.45  0.000065  (-0.007187 -0.003667 -0.000050)
 68:   1379.89   0.000666    3.37  0.000151  (-0.011400  0.002041 -0.004060)
 69:   1395.01   0.000213    1.08  0.000048  ( 0.001140 -0.004552  0.005069)
 70:   1404.84   0.000178    0.90  0.000040  (-0.003643  0.005132 -0.000101)
 71:   1416.98   0.000035    0.18  0.000008  (-0.002501 -0.001158  0.000214)
 72:   1428.41   0.000569    2.87  0.000124  (-0.005388  0.002646 -0.009394)
 73:   1432.70   0.001677    8.48  0.000365  (-0.004058 -0.013648 -0.012750)
 74:   1434.87   0.000489    2.47  0.000106  ( 0.001160 -0.002865  0.009836)
 75:   1436.88   0.000513    2.59  0.000111  (-0.001545 -0.009842 -0.003474)
 76:   1444.03   0.000247    1.25  0.000053  ( 0.005378 -0.004823  0.001133)
 77:   1456.66   0.003106   15.70  0.000666  (-0.003424 -0.019563  0.016464)
 78:   1460.22   0.001775    8.97  0.000379  (-0.006533  0.017985  0.003621)
 79:   1488.81   0.001168    5.90  0.000245  ( 0.002715  0.008230 -0.013030)
 80:   1503.85   0.000673    3.40  0.000140  (-0.010477 -0.002665  0.004773)
 81:   1509.84   0.001386    7.01  0.000287  (-0.001258  0.013262 -0.010445)
 82:   1510.70   0.001304    6.59  0.000269  (-0.003639 -0.006847  0.014462)
 83:   1517.45   0.000050    0.25  0.000010  ( 0.000127 -0.000685 -0.003142)
 84:   1522.75   0.000066    0.33  0.000014  ( 0.002934  0.000274 -0.002204)
 85:   1523.52   0.002228   11.26  0.000456  (-0.011487 -0.014395 -0.010824)
 86:   1533.41   0.002131   10.77  0.000434  ( 0.004962 -0.015982 -0.012394)
 87:   1535.48   0.003465   17.51  0.000704  ( 0.022902  0.012265  0.005418)
 88:   1540.87   0.001953    9.87  0.000396  (-0.012180 -0.004672 -0.015014)
 89:   1546.74   0.002862   14.47  0.000578  (-0.007935  0.022291  0.004205)
 90:   1553.78   0.001471    7.44  0.000296  ( 0.008934  0.003749 -0.014200)
 91:   1760.40   0.007024   35.50  0.001245  (-0.001461  0.031814 -0.015196)
 92:   1802.62   0.000698    3.53  0.000121  ( 0.010086  0.004285  0.000900)
 93:   3060.86   0.004685   23.68  0.000478  (-0.015601 -0.000271 -0.015303)
 94:   3074.98   0.007649   38.65  0.000776  (-0.026267 -0.009054 -0.002076)
 95:   3083.49   0.002247   11.35  0.000227  (-0.007973 -0.012686  0.001698)
 96:   3087.49   0.004407   22.27  0.000445  (-0.009502 -0.007822  0.017144)
 97:   3091.20   0.007435   37.57  0.000751  (-0.003765 -0.022925 -0.014521)
 98:   3093.23   0.010802   54.59  0.001090  ( 0.031831 -0.008394 -0.002476)
 99:   3101.91   0.005916   29.90  0.000595  (-0.010835  0.013667 -0.017058)
100:   3104.65   0.008319   42.04  0.000836  (-0.026167 -0.011983 -0.002800)
101:   3121.96   0.004927   24.90  0.000492  ( 0.007628 -0.006535 -0.019788)
102:   3122.51   0.002470   12.48  0.000247  (-0.008730  0.009397 -0.009072)
103:   3130.46   0.002188   11.06  0.000218  ( 0.013348 -0.000886  0.006257)
104:   3131.63   0.006276   31.72  0.000625  (-0.004792 -0.016819 -0.017877)
105:   3155.10   0.006684   33.78  0.000661  (-0.013257 -0.001638  0.021971)
106:   3168.79   0.002196   11.10  0.000216  ( 0.002279  0.008885 -0.011494)
107:   3174.54   0.001091    5.51  0.000107  (-0.004629  0.008402  0.003900)
108:   3176.35   0.007705   38.94  0.000757  ( 0.000154  0.018735 -0.020147)
109:   3180.63   0.005933   29.98  0.000582  ( 0.022188  0.007592 -0.005676)
110:   3196.46   0.004229   21.37  0.000413  (-0.018201  0.002542 -0.008668)
111:   3200.15   0.001891    9.56  0.000184  (-0.001093  0.012718 -0.004637)
112:   3203.40   0.002298   11.61  0.000224  (-0.005895 -0.009625 -0.009823)
113:   3206.94   0.002709   13.69  0.000264  (-0.001259 -0.011839  0.011040)
114:   3227.95   0.000480    2.43  0.000046  (-0.001622  0.003050  0.005871)
115:   3228.87   0.007365   37.22  0.000712  ( 0.007061 -0.019961 -0.016235)
116:   3293.03   0.001776    8.98  0.000168  (-0.011077  0.003810  0.005577)

--------------------------
THERMOCHEMISTRY AT 298.15K
--------------------------

Temperature         ...   298.15 K
Pressure            ...     1.00 atm
Total Mass          ...   204.36 AMU
Quasi RRHO          ...     True
Cut-Off Frequency   ...     1.00 cm^-1

Throughout the following assumptions are being made:
  (1) The electronic state is orbitally nondegenerate
  (2) There are no thermally accessible electronically excited states
  (3) Hindered rotations indicated by low frequency modes are not
      treated as such but are treated as vibrations and this may
      cause some error
  (4) All equations used are the standard statistical mechanics
      equations for an ideal gas
  (5) All vibrations are strictly harmonic

freq.      80.05  E(vib)   ...       0.49
freq.     100.72  E(vib)   ...       0.46
freq.     116.59  E(vib)   ...       0.44
freq.     165.69  E(vib)   ...       0.39
freq.     182.06  E(vib)   ...       0.37
freq.     216.65  E(vib)   ...       0.34
freq.     243.08  E(vib)   ...       0.31
freq.     252.78  E(vib)   ...       0.30
freq.     304.70  E(vib)   ...       0.26
freq.     317.38  E(vib)   ...       0.25
freq.     325.52  E(vib)   ...       0.24
freq.     335.18  E(vib)   ...       0.24
freq.     352.89  E(vib)   ...       0.22
freq.     354.29  E(vib)   ...       0.22
freq.     374.44  E(vib)   ...       0.21
freq.     376.90  E(vib)   ...       0.21
freq.     410.84  E(vib)   ...       0.19
freq.     460.56  E(vib)   ...       0.16
freq.     488.89  E(vib)   ...       0.15
freq.     509.08  E(vib)   ...       0.14
freq.     519.19  E(vib)   ...       0.13
freq.     582.62  E(vib)   ...       0.11
freq.     646.62  E(vib)   ...       0.09
freq.     675.09  E(vib)   ...       0.08
freq.     695.93  E(vib)   ...       0.07
freq.     747.39  E(vib)   ...       0.06
freq.     758.51  E(vib)   ...       0.06
freq.     802.58  E(vib)   ...       0.05
freq.     826.05  E(vib)   ...       0.04
freq.     844.74  E(vib)   ...       0.04
freq.     875.44  E(vib)   ...       0.04
freq.     908.20  E(vib)   ...       0.03
freq.     925.06  E(vib)   ...       0.03
freq.     938.58  E(vib)   ...       0.03
freq.     942.02  E(vib)   ...       0.03
freq.     965.08  E(vib)   ...       0.03
freq.     975.91  E(vib)   ...       0.03
freq.     996.21  E(vib)   ...       0.02
freq.    1006.75  E(vib)   ...       0.02
freq.    1027.73  E(vib)   ...       0.02
freq.    1038.34  E(vib)   ...       0.02
freq.    1048.41  E(vib)   ...       0.02
freq.    1062.93  E(vib)   ...       0.02
freq.    1080.45  E(vib)   ...       0.02
freq.    1084.26  E(vib)   ...       0.02
freq.    1111.78  E(vib)   ...       0.01
freq.    1121.35  E(vib)   ...       0.01
freq.    1147.83  E(vib)   ...       0.01
freq.    1177.99  E(vib)   ...       0.01
freq.    1184.28  E(vib)   ...       0.01
freq.    1209.28  E(vib)   ...       0.01
freq.    1219.15  E(vib)   ...       0.01
freq.    1242.03  E(vib)   ...       0.01
freq.    1258.65  E(vib)   ...       0.01
freq.    1263.25  E(vib)   ...       0.01
freq.    1296.18  E(vib)   ...       0.01
freq.    1305.20  E(vib)   ...       0.01
freq.    1338.80  E(vib)   ...       0.01
freq.    1352.67  E(vib)   ...       0.01
freq.    1360.20  E(vib)   ...       0.01
freq.    1373.19  E(vib)   ...       0.01
freq.    1379.89  E(vib)   ...       0.01
freq.    1395.01  E(vib)   ...       0.00
freq.    1404.84  E(vib)   ...       0.00
freq.    1416.98  E(vib)   ...       0.00
freq.    1428.41  E(vib)   ...       0.00
freq.    1432.70  E(vib)   ...       0.00
freq.    1434.87  E(vib)   ...       0.00
freq.    1436.88  E(vib)   ...       0.00
freq.    1444.03  E(vib)   ...       0.00
freq.    1456.66  E(vib)   ...       0.00
freq.    1460.22  E(vib)   ...       0.00
freq.    1488.81  E(vib)   ...       0.00
freq.    1503.85  E(vib)   ...       0.00
freq.    1509.84  E(vib)   ...       0.00
freq.    1510.70  E(vib)   ...       0.00
freq.    1517.45  E(vib)   ...       0.00
freq.    1522.75  E(vib)   ...       0.00
freq.    1523.52  E(vib)   ...       0.00
freq.    1533.41  E(vib)   ...       0.00
freq.    1535.48  E(vib)   ...       0.00
freq.    1540.87  E(vib)   ...       0.00
freq.    1546.74  E(vib)   ...       0.00
freq.    1553.78  E(vib)   ...       0.00
freq.    1760.40  E(vib)   ...       0.00
freq.    1802.62  E(vib)   ...       0.00
freq.    3060.86  E(vib)   ...       0.00
freq.    3074.98  E(vib)   ...       0.00
freq.    3083.49  E(vib)   ...       0.00
freq.    3087.49  E(vib)   ...       0.00
freq.    3091.20  E(vib)   ...       0.00
freq.    3093.23  E(vib)   ...       0.00
freq.    3101.91  E(vib)   ...       0.00
freq.    3104.65  E(vib)   ...       0.00
freq.    3121.96  E(vib)   ...       0.00
freq.    3122.51  E(vib)   ...       0.00
freq.    3130.46  E(vib)   ...       0.00
freq.    3131.63  E(vib)   ...       0.00
freq.    3155.10  E(vib)   ...       0.00
freq.    3168.79  E(vib)   ...       0.00
freq.    3174.54  E(vib)   ...       0.00
freq.    3176.35  E(vib)   ...       0.00
freq.    3180.63  E(vib)   ...       0.00
freq.    3196.46  E(vib)   ...       0.00
freq.    3200.15  E(vib)   ...       0.00
freq.    3203.40  E(vib)   ...       0.00
freq.    3206.94  E(vib)   ...       0.00
freq.    3227.95  E(vib)   ...       0.00
freq.    3228.87  E(vib)   ...       0.00
freq.    3293.03  E(vib)   ...       0.00

------------
INNER ENERGY
------------

The inner energy is: U= E(el) + E(ZPE) + E(vib) + E(rot) + E(trans)
    E(el)   - is the total energy from the electronic structure calculation
              = E(kin-el) + E(nuc-el) + E(el-el) + E(nuc-nuc)
    E(ZPE)  - the the zero temperature vibrational energy from the frequency calculation
    E(vib)  - the the finite temperature correction to E(ZPE) due to population
              of excited vibrational states
    E(rot)  - is the rotational thermal energy
    E(trans)- is the translational thermal energy

Summary of contributions to the inner energy U:
Electronic energy                ...    -99.92297316 Eh
Zero point energy                ...      0.36692516 Eh     230.25 kcal/mol
Thermal vibrational correction   ...      0.01100276 Eh       6.90 kcal/mol
Thermal rotational correction    ...      0.00141627 Eh       0.89 kcal/mol
Thermal translational correction ...      0.00141627 Eh       0.89 kcal/mol
-----------------------------------------------------------------------
Total thermal energy                    -99.54221270 Eh

Summary of corrections to the electronic energy:
(perhaps to be used in another calculation)
Total thermal correction                  0.01383530 Eh       8.68 kcal/mol
Non-thermal (ZPE) correction              0.36692516 Eh     230.25 kcal/mol
-----------------------------------------------------------------------
Total correction                          0.38076046 Eh     238.93 kcal/mol

Rotational constants in cm-1:     0.028252     0.018057     0.013016

                             ****ORCA TERMINATED NORMALLY****
TOTAL RUN TIME: 0 days 0 hours 35 minutes 24 seconds 86 msec
