                         Program Version 6.0.1  -  RELEASE   -
|  1> ! wB97X-3c OPT FREQ TightSCF
|  2> %pal
|  3>   nprocs 40
|  4> end
|  5> * xyz 0 1
|  6> C     -0.373664    -1.842939    -0.933194
|  7> C     -0.936971    -0.607677    -0.278937
|  8> C     -2.337364    -0.526789    -0.152393
|  9> C     -2.942843     0.586872     0.425293
| 10> C     -2.163913     1.643372     0.882598
| 11> C     -0.776643     1.596000     0.754675
| 12> C     -0.132090     0.490384     0.158401
| 13> C      1.396766     0.538881     0.088813
| 14> C      2.039942    -0.257941     1.229653
| 15> C      1.984542     0.166859    -1.280720
| 16> H     -1.123412    -2.662250    -0.964631
| 17> H     -0.085753    -1.615013    -1.979960
| 18> H      0.490694    -2.239558    -0.371060
| 19> H     -2.970220    -1.333942    -0.501085
| 20> H     -4.020304     0.628987     0.520318
| 21> H     -2.635996     2.504561     1.337839
| 22> H     -0.202089     2.435424     1.126889
| 23> H      1.712572     1.595242     0.247244
| 24> H      3.142082    -0.118370     1.215025
| 25> H      1.659164     0.106959     2.207569
| 26> H      1.824564    -1.340749     1.151089
| 27> H      1.346131     0.561972    -2.099535
| 28> H      2.994772     0.617551    -1.387128
| 29> H      2.110033    -0.927837    -1.396761
| 30> *
| 31>
| 32>                          ****END OF INPUT****
 Total Charge           Charge          ....    0
 Multiplicity           Mult            ....    1
 Number of Electrons    NEL             ....   54
Dispersion correction           -0.029292172
FINAL SINGLE POINT ENERGY       -65.410511229421
Dispersion correction             ... done (  0.1 sec)
Dispersion correction           -0.029679697
FINAL SINGLE POINT ENERGY       -65.416468086928
Dispersion correction             ... done (  0.1 sec)
Dispersion correction           -0.029709190
FINAL SINGLE POINT ENERGY       -65.416870785970
Dispersion correction             ... done (  0.1 sec)
FINAL SINGLE POINT ENERGY       -65.416980093221
FINAL SINGLE POINT ENERGY       -65.417010990529
FINAL SINGLE POINT ENERGY       -65.417024319729
FINAL SINGLE POINT ENERGY       -65.417029800112
FINAL SINGLE POINT ENERGY       -65.417032612368
Dispersion correction             ... done (  0.1 sec)
Dispersion correction           -0.029654986
FINAL SINGLE POINT ENERGY       -65.417033918395
Dispersion correction             ... done (  0.1 sec)
Dispersion correction           -0.029653235
FINAL SINGLE POINT ENERGY       -65.417034442744
Dispersion correction             ... done (  0.1 sec)
                    ***********************HURRAY********************

CARTESIAN COORDINATES (ANGSTROEM)
---------------------------------
  C     -0.361775   -1.854754   -0.866490
  C     -0.923741   -0.604088   -0.252129
  C     -2.304148   -0.524267   -0.110054
  C     -2.927923    0.589143    0.419449
  C     -2.158511    1.661242    0.824684
  C     -0.784690    1.593821    0.690028
  C     -0.140432    0.482012    0.158105
  C      1.374687    0.531743    0.099884
  C      2.018185   -0.318439    1.189394
  C      1.976360    0.248857   -1.271226
  H     -1.099407   -2.653536   -0.829269
  H     -0.104574   -1.696528   -1.913040
  H      0.530370   -2.208363   -0.358966
  H     -2.906303   -1.366688   -0.425640
  H     -4.004671    0.614614    0.514636
  H     -2.619934    2.545054    1.243170
  H     -0.185056    2.436615    1.009646
  H      1.632963    1.567405    0.330140
  H      3.099394   -0.178340    1.191351
  H      1.638235   -0.039834    2.171316
  H      1.824598   -1.380423    1.050528
  H      1.446810    0.793807   -2.052052
  H      3.018325    0.568853   -1.287531
  H      1.961237   -0.807904   -1.525931

 Multiplicity           Mult            ....    1
 Number of Electrons    NEL             ....   54
 Basis Dimension        Dim             ....  200

ORBITAL ENERGIES
----------------

  NO   OCC          E(Eh)            E(eV)
   0   2.0000      -1.007456       -27.4143
   1   2.0000      -0.944820       -25.7099
   2   2.0000      -0.910180       -24.7673
   3   2.0000      -0.870072       -23.6759
   4   2.0000      -0.822944       -22.3935
   5   2.0000      -0.818863       -22.2824
   6   2.0000      -0.742085       -20.1932
   7   2.0000      -0.724634       -19.7183
   8   2.0000      -0.682159       -18.5625
   9   2.0000      -0.619912       -16.8687
  10   2.0000      -0.595087       -16.1931
  11   2.0000      -0.570484       -15.5237
  12   2.0000      -0.549584       -14.9549
  13   2.0000      -0.541962       -14.7475
  14   2.0000      -0.538449       -14.6520
  15   2.0000      -0.526230       -14.3194
  16   2.0000      -0.520050       -14.1513
  17   2.0000      -0.499339       -13.5877
  18   2.0000      -0.490263       -13.3407
  19   2.0000      -0.480196       -13.0668
  20   2.0000      -0.468051       -12.7363
  21   2.0000      -0.447797       -12.1852
  22   2.0000      -0.445508       -12.1229
  23   2.0000      -0.427618       -11.6361
  24   2.0000      -0.419196       -11.4069
  25   2.0000      -0.339956        -9.2507
  26   2.0000      -0.330903        -9.0043
  27   0.0000       0.071940         1.9576
  28   0.0000       0.074553         2.0287
  29   0.0000       0.087208         2.3730
  30   0.0000       0.098411         2.6779
  31   0.0000       0.099224         2.7000

MULLIKEN ATOMIC CHARGES
-----------------------
   0 C :   -0.051137
   1 C :   -0.074051
   2 C :    0.014588
   3 C :   -0.004289
   4 C :   -0.005104
   5 C :    0.003022
   6 C :   -0.065815
   7 C :   -0.130465
   8 C :   -0.026288
   9 C :   -0.030602
  10 H :    0.029708
  11 H :    0.052939
  12 H :    0.030527
  13 H :    0.011763
  14 H :    0.014390
  15 H :    0.013433
  16 H :    0.012553
  17 H :    0.030316
  18 H :    0.028344
  19 H :    0.041129
  20 H :    0.016995
  21 H :    0.041866
  22 H :    0.028085
  23 H :    0.018092
Sum of atomic charges:   -0.0000000

LOEWDIN ATOMIC CHARGES
----------------------
   0 C :   -0.102633
   1 C :   -0.030156
   2 C :   -0.043646
   3 C :   -0.052513
   4 C :   -0.053152
   5 C :   -0.041477
   6 C :   -0.020675
   7 C :   -0.080734
   8 C :   -0.101540
   9 C :   -0.103895
  10 H :    0.049984
  11 H :    0.049889
  12 H :    0.041320
  13 H :    0.044485
  14 H :    0.044758
  15 H :    0.044545
  16 H :    0.043486
  17 H :    0.051209
  18 H :    0.044832
  19 H :    0.047357
  20 H :    0.037634
  21 H :    0.047285
  22 H :    0.045377
  23 H :    0.038261

  Mayer bond orders larger than 0.100000
B(  0-C ,  1-C ) :   1.0212 B(  0-C , 10-H ) :   0.9892 B(  0-C , 11-H ) :   0.9729
B(  0-C , 12-H ) :   0.9842 B(  1-C ,  2-C ) :   1.4372 B(  1-C ,  6-C ) :   1.4741
B(  2-C ,  3-C ) :   1.4477 B(  2-C , 13-H ) :   0.9875 B(  3-C ,  4-C ) :   1.4430
B(  3-C , 14-H ) :   0.9895 B(  4-C ,  5-C ) :   1.4491 B(  4-C , 15-H ) :   0.9899
B(  5-C ,  6-C ) :   1.4511 B(  5-C , 16-H ) :   0.9861 B(  6-C ,  7-C ) :   1.0077
B(  7-C ,  8-C ) :   0.9882 B(  7-C ,  9-C ) :   0.9925 B(  7-C , 17-H ) :   0.9990
B(  8-C , 18-H ) :   0.9918 B(  8-C , 19-H ) :   0.9916 B(  8-C , 20-H ) :   0.9909
B(  9-C , 21-H ) :   0.9913 B(  9-C , 22-H ) :   0.9932 B(  9-C , 23-H ) :   0.9927

Dispersion correction           -0.029654023
FINAL SINGLE POINT ENERGY       -65.417034637881

DIPOLE MOMENT
-------------

Method             : SCF
Type of density    : Electron Density
Multiplicity       :   1
Irrep              :   0
Energy             :   -65.3873806151975856 Eh
Relativity type    :
Basis              : AO
                                X                 Y                 Z
Electronic contribution:    -11.201701821       4.775410392       2.312630216
Nuclear contribution   :     11.409834045      -4.867172466      -2.376995150
                        -----------------------------------------
Total Dipole Moment    :      0.208132224      -0.091762074      -0.064364934
                        -----------------------------------------
Magnitude (a.u.)       :      0.236394048
Magnitude (Debye)      :      0.600865917

VIBRATIONAL FREQUENCIES
-----------------------

Scaling factor for frequencies =  1.000000000  (already applied!)

     0:       0.00 cm**-1
     1:       0.00 cm**-1
     2:       0.00 cm**-1
     3:       0.00 cm**-1
     4:       0.00 cm**-1
     5:       0.00 cm**-1
     6:      72.50 cm**-1
     7:     117.09 cm**-1
     8:     175.58 cm**-1
     9:     190.76 cm**-1
    10:     222.35 cm**-1
    11:     242.99 cm**-1
    12:     277.12 cm**-1
    13:     302.74 cm**-1
    14:     337.28 cm**-1
    15:     373.66 cm**-1
    16:     466.21 cm**-1
    17:     476.65 cm**-1
    18:     576.27 cm**-1
    19:     582.99 cm**-1
    20:     608.47 cm**-1
    21:     726.03 cm**-1
    22:     759.34 cm**-1
    23:     790.83 cm**-1
    24:     843.76 cm**-1
    25:     901.10 cm**-1
    26:     940.20 cm**-1
    27:     951.99 cm**-1
    28:     983.65 cm**-1
    29:     996.91 cm**-1
    30:    1022.14 cm**-1
    31:    1029.47 cm**-1
    32:    1082.21 cm**-1
    33:    1094.96 cm**-1
    34:    1108.48 cm**-1
    35:    1174.26 cm**-1
    36:    1179.92 cm**-1
    37:    1190.24 cm**-1
    38:    1200.26 cm**-1
    39:    1258.35 cm**-1
    40:    1277.61 cm**-1
    41:    1332.44 cm**-1
    42:    1343.10 cm**-1
    43:    1384.88 cm**-1
    44:    1429.16 cm**-1
    45:    1436.50 cm**-1
    46:    1447.81 cm**-1
    47:    1455.83 cm**-1
    48:    1505.90 cm**-1
    49:    1516.27 cm**-1
    50:    1519.07 cm**-1
    51:    1522.59 cm**-1
    52:    1535.87 cm**-1
    53:    1542.96 cm**-1
    54:    1545.95 cm**-1
    55:    1575.08 cm**-1
    56:    1689.79 cm**-1
    57:    1719.60 cm**-1
    58:    3101.92 cm**-1
    59:    3104.13 cm**-1
    60:    3108.89 cm**-1
    61:    3118.40 cm**-1
    62:    3188.98 cm**-1
    63:    3192.55 cm**-1
    64:    3198.02 cm**-1
    65:    3204.71 cm**-1
    66:    3215.64 cm**-1
    67:    3228.74 cm**-1
    68:    3235.97 cm**-1
    69:    3240.31 cm**-1
    70:    3257.32 cm**-1
    71:    3272.78 cm**-1

IR SPECTRUM
-----------

 Mode   freq       eps      Int      T**2         TX        TY        TZ
       cm**-1   L/(mol*cm) km/mol    a.u.
----------------------------------------------------------------------------
  6:     72.50   0.000012    0.06  0.000052  ( 0.004818 -0.000866  0.005251)
  7:    117.09   0.000024    0.12  0.000064  ( 0.001213  0.002854 -0.007353)
  8:    175.58   0.000050    0.25  0.000089  (-0.006942 -0.005874  0.002580)
  9:    190.76   0.000153    0.77  0.000250  (-0.000065 -0.003989  0.015289)
 10:    222.35   0.000207    1.05  0.000291  ( 0.001246 -0.007673  0.015190)
 11:    242.99   0.000137    0.69  0.000176  ( 0.005750 -0.007054  0.009673)
 12:    277.12   0.000033    0.17  0.000037  ( 0.000964  0.001845  0.005753)
 13:    302.74   0.000038    0.19  0.000039  ( 0.003033 -0.003536  0.004188)
 14:    337.28   0.000344    1.74  0.000318  (-0.002283 -0.007652  0.015941)
 15:    373.66   0.000145    0.73  0.000121  ( 0.008239  0.006397  0.003468)
 16:    466.21   0.000075    0.38  0.000050  (-0.003773 -0.005212  0.002992)
 17:    476.65   0.001445    7.30  0.000946  (-0.003724  0.010443 -0.028690)
 18:    576.27   0.000466    2.35  0.000252  ( 0.001159 -0.003591  0.015427)
 19:    582.99   0.000209    1.06  0.000112  ( 0.000593  0.006187 -0.008559)
 20:    608.47   0.000119    0.60  0.000061  (-0.006930  0.002327  0.002718)
 21:    726.03   0.000114    0.58  0.000049  (-0.006590 -0.000137 -0.002388)
 22:    759.34   0.005999   30.32  0.002465  ( 0.003055 -0.020688  0.045035)
 23:    790.83   0.006194   31.30  0.002444  (-0.004568  0.019402 -0.045243)
 24:    843.76   0.000145    0.73  0.000054  ( 0.002737  0.005308  0.004254)
 25:    901.10   0.000023    0.12  0.000008  ( 0.000159 -0.000534  0.002790)
 26:    940.20   0.000072    0.36  0.000024  (-0.003336  0.003217 -0.001546)
 27:    951.99   0.000193    0.97  0.000063  ( 0.000578 -0.002081  0.007650)
 28:    983.65   0.000176    0.89  0.000056  ( 0.000199 -0.004195  0.006173)
 29:    996.91   0.000018    0.09  0.000006  (-0.002140  0.000689  0.000717)
 30:   1022.14   0.000003    0.02  0.000001  ( 0.000488 -0.000435  0.000736)
 31:   1029.47   0.000442    2.23  0.000134  (-0.010159  0.005516  0.000542)
 32:   1082.21   0.000954    4.82  0.000275  ( 0.004419 -0.002363 -0.015808)
 33:   1094.96   0.003984   20.13  0.001135  ( 0.032919  0.006541  0.002998)
 34:   1108.48   0.001628    8.23  0.000458  ( 0.016092 -0.012500 -0.006573)
 35:   1174.26   0.000412    2.08  0.000109  ( 0.004262  0.001016 -0.009495)
 36:   1179.92   0.000400    2.02  0.000106  ( 0.001967 -0.009999 -0.001344)
 37:   1190.24   0.000037    0.19  0.000010  ( 0.000554 -0.000693 -0.003005)
 38:   1200.26   0.000001    0.01  0.000000  (-0.000458  0.000112 -0.000382)
 39:   1258.35   0.000432    2.18  0.000107  (-0.010111 -0.002114  0.000667)
 40:   1277.61   0.000371    1.88  0.000091  ( 0.009111 -0.000022 -0.002779)
 41:   1332.44   0.000211    1.06  0.000049  (-0.005823 -0.003477 -0.001826)
 42:   1343.10   0.000103    0.52  0.000024  ( 0.004881  0.000129  0.000250)
 43:   1384.88   0.000062    0.31  0.000014  ( 0.001906 -0.000803  0.003109)
 44:   1429.16   0.000862    4.36  0.000188  (-0.006321  0.003096 -0.011780)
 45:   1436.50   0.001748    8.83  0.000380  ( 0.002359  0.003789 -0.018966)
 46:   1447.81   0.000765    3.86  0.000165  ( 0.011642  0.004039 -0.003602)
 47:   1455.83   0.001322    6.68  0.000283  (-0.012040  0.010624  0.005065)
 48:   1505.90   0.000911    4.60  0.000189  ( 0.012055  0.001681  0.006367)
 49:   1516.27   0.000996    5.03  0.000205  (-0.003533 -0.008855 -0.010683)
 50:   1519.07   0.001598    8.07  0.000328  ( 0.003596  0.005200  0.016978)
 51:   1522.59   0.000090    0.46  0.000019  (-0.000144  0.004230 -0.000773)
 52:   1535.87   0.001199    6.06  0.000244  ( 0.007380 -0.012391  0.005964)
 53:   1542.96   0.005240   26.48  0.001060  (-0.009688 -0.031076 -0.000520)
 54:   1545.95   0.000693    3.50  0.000140  ( 0.010333  0.004108 -0.004041)
 55:   1575.08   0.003148   15.91  0.000624  (-0.022034  0.009382  0.007082)
 56:   1689.79   0.000179    0.90  0.000033  ( 0.005029 -0.002321 -0.001532)
 57:   1719.60   0.000340    1.72  0.000062  ( 0.003557  0.005749  0.003988)
 58:   3101.92   0.003168   16.01  0.000319  ( 0.005583 -0.015883 -0.005942)
 59:   3104.13   0.006564   33.17  0.000660  ( 0.006857 -0.006406  0.023912)
 60:   3108.89   0.005652   28.56  0.000567  ( 0.021721  0.008409 -0.004985)
 61:   3118.40   0.005598   28.29  0.000560  (-0.010617  0.018966  0.009370)
 62:   3188.98   0.002744   13.87  0.000269  (-0.014442 -0.000657 -0.007715)
 63:   3192.55   0.004920   24.86  0.000481  ( 0.020944  0.004099 -0.005049)
 64:   3198.02   0.002305   11.65  0.000225  ( 0.005587  0.011112 -0.008381)
 65:   3204.71   0.003225   16.30  0.000314  ( 0.004897  0.014641  0.008702)
 66:   3215.64   0.002374   12.00  0.000230  (-0.001414  0.015004  0.001818)
 67:   3228.74   0.002153   10.88  0.000208  ( 0.009901 -0.010131  0.002729)
 68:   3235.97   0.002369   11.97  0.000228  ( 0.009880  0.010717  0.003999)
 69:   3240.31   0.000185    0.94  0.000018  (-0.000809  0.003528  0.002181)
 70:   3257.32   0.003130   15.82  0.000300  ( 0.009291  0.013707  0.005062)
 71:   3272.78   0.002662   13.45  0.000254  ( 0.013567 -0.007285 -0.004082)

--------------------------
THERMOCHEMISTRY AT 298.15K
--------------------------

Temperature         ...   298.15 K
Pressure            ...     1.00 atm
Total Mass          ...   134.22 AMU
Quasi RRHO          ...     True
Cut-Off Frequency   ...     1.00 cm^-1

Throughout the following assumptions are being made:
  (1) The electronic state is orbitally nondegenerate
  (2) There are no thermally accessible electronically excited states
  (3) Hindered rotations indicated by low frequency modes are not
      treated as such but are treated as vibrations and this may
      cause some error
  (4) All equations used are the standard statistical mechanics
      equations for an ideal gas
  (5) All vibrations are strictly harmonic

freq.      72.50  E(vib)   ...       0.49
freq.     117.09  E(vib)   ...       0.44
freq.     175.58  E(vib)   ...       0.38
freq.     190.76  E(vib)   ...       0.36
freq.     222.35  E(vib)   ...       0.33
freq.     242.99  E(vib)   ...       0.31
freq.     277.12  E(vib)   ...       0.28
freq.     302.74  E(vib)   ...       0.26
freq.     337.28  E(vib)   ...       0.24
freq.     373.66  E(vib)   ...       0.21
freq.     466.21  E(vib)   ...       0.16
freq.     476.65  E(vib)   ...       0.15
freq.     576.27  E(vib)   ...       0.11
freq.     582.99  E(vib)   ...       0.11
freq.     608.47  E(vib)   ...       0.10
freq.     726.03  E(vib)   ...       0.06
freq.     759.34  E(vib)   ...       0.06
freq.     790.83  E(vib)   ...       0.05
freq.     843.76  E(vib)   ...       0.04
freq.     901.10  E(vib)   ...       0.03
freq.     940.20  E(vib)   ...       0.03
freq.     951.99  E(vib)   ...       0.03
freq.     983.65  E(vib)   ...       0.02
freq.     996.91  E(vib)   ...       0.02
freq.    1022.14  E(vib)   ...       0.02
freq.    1029.47  E(vib)   ...       0.02
freq.    1082.21  E(vib)   ...       0.02
freq.    1094.96  E(vib)   ...       0.02
freq.    1108.48  E(vib)   ...       0.02
freq.    1174.26  E(vib)   ...       0.01
freq.    1179.92  E(vib)   ...       0.01
freq.    1190.24  E(vib)   ...       0.01
freq.    1200.26  E(vib)   ...       0.01
freq.    1258.35  E(vib)   ...       0.01
freq.    1277.61  E(vib)   ...       0.01
freq.    1332.44  E(vib)   ...       0.01
freq.    1343.10  E(vib)   ...       0.01
freq.    1384.88  E(vib)   ...       0.00
freq.    1429.16  E(vib)   ...       0.00
freq.    1436.50  E(vib)   ...       0.00
freq.    1447.81  E(vib)   ...       0.00
freq.    1455.83  E(vib)   ...       0.00
freq.    1505.90  E(vib)   ...       0.00
freq.    1516.27  E(vib)   ...       0.00
freq.    1519.07  E(vib)   ...       0.00
freq.    1522.59  E(vib)   ...       0.00
freq.    1535.87  E(vib)   ...       0.00
freq.    1542.96  E(vib)   ...       0.00
freq.    1545.95  E(vib)   ...       0.00
freq.    1575.08  E(vib)   ...       0.00
freq.    1689.79  E(vib)   ...       0.00
freq.    1719.60  E(vib)   ...       0.00
freq.    3101.92  E(vib)   ...       0.00
freq.    3104.13  E(vib)   ...       0.00
freq.    3108.89  E(vib)   ...       0.00
freq.    3118.40  E(vib)   ...       0.00
freq.    3188.98  E(vib)   ...       0.00
freq.    3192.55  E(vib)   ...       0.00
freq.    3198.02  E(vib)   ...       0.00
freq.    3204.71  E(vib)   ...       0.00
freq.    3215.64  E(vib)   ...       0.00
freq.    3228.74  E(vib)   ...       0.00
freq.    3235.97  E(vib)   ...       0.00
freq.    3240.31  E(vib)   ...       0.00
freq.    3257.32  E(vib)   ...       0.00
freq.    3272.78  E(vib)   ...       0.00

------------
INNER ENERGY
------------

The inner energy is: U= E(el) + E(ZPE) + E(vib) + E(rot) + E(trans)
    E(el)   - is the total energy from the electronic structure calculation
              = E(kin-el) + E(nuc-el) + E(el-el) + E(nuc-nuc)
    E(ZPE)  - the the zero temperature vibrational energy from the frequency calculation
    E(vib)  - the the finite temperature correction to E(ZPE) due to population
              of excited vibrational states
    E(rot)  - is the rotational thermal energy
    E(trans)- is the translational thermal energy

Summary of contributions to the inner energy U:
Electronic energy                ...    -65.41703464 Eh
Zero point energy                ...      0.21803334 Eh     136.82 kcal/mol
Thermal vibrational correction   ...      0.00715057 Eh       4.49 kcal/mol
Thermal rotational correction    ...      0.00141627 Eh       0.89 kcal/mol
Thermal translational correction ...      0.00141627 Eh       0.89 kcal/mol
-----------------------------------------------------------------------
Total thermal energy                    -65.18901818 Eh

Summary of corrections to the electronic energy:
(perhaps to be used in another calculation)
Total thermal correction                  0.00998311 Eh       6.26 kcal/mol
Non-thermal (ZPE) correction              0.21803334 Eh     136.82 kcal/mol
-----------------------------------------------------------------------
Total correction                          0.22801645 Eh     143.08 kcal/mol

--------
ENTHALPY
--------

The enthalpy is H = U + kB*T
                kB is Boltzmann's constant
Total thermal energy              ...    -65.18901818 Eh
Thermal Enthalpy correction       ...      0.00094421 Eh       0.59 kcal/mol
-----------------------------------------------------------------------
Total Enthalpy                    ...    -65.18807398 Eh

Note: Only C1 symmetry has been detected, increase convergence thresholds
      if your molecule has a higher symmetry. Symmetry factor of 1.0 is
      used for the rotational entropy correction.

Note: Rotational entropy computed according to Herzberg
Infrared and Raman Spectra, Chapter V,1, Van Nostrand Reinhold, 1945
Point Group:  C1, Symmetry Number:   1
Rotational constants in cm-1:     0.072716     0.035385     0.028077

Vibrational entropy computed according to the QRRHO of S. Grimme
Chem.Eur.J. 2012 18 9955 using a reference frequency of 100.0 cm-1

-------
ENTROPY
-------

The entropy contributions are T*S = T*(S(el)+S(vib)+S(rot)+S(trans))
     S(el)   - electronic entropy
     S(vib)  - vibrational entropy
     S(rot)  - rotational entropy
     S(trans)- translational entropy
The entropies will be listed as multiplied by the temperature to get
units of energy

Electronic entropy                ...      0.00000000 Eh      0.00 kcal/mol
Vibrational entropy               ...      0.01193040 Eh      7.49 kcal/mol
Rotational entropy                ...      0.01401241 Eh      8.79 kcal/mol
Translational entropy             ...      0.01928809 Eh     12.10 kcal/mol
-----------------------------------------------------------------------
Final entropy term                ...      0.04523090 Eh     28.38 kcal/mol

                             ****ORCA TERMINATED NORMALLY****
TOTAL RUN TIME: 0 days 0 hours 10 minutes 31 seconds 315 msec
