                         Program Version 6.0.1  -  RELEASE   -
|  1> ! wB97X-3c OPT FREQ TightSCF
|  2> %pal
|  3>   nprocs 40
|  4> end
|  5> * xyz 0 1
|  6> C      4.399614    -0.570965     0.658690
|  7> C      2.911635    -0.472565     0.766963
|  8> C      2.182857     0.009890    -0.246541
|  9> C      0.706134     0.152045    -0.212197
| 10> C     -0.106243    -0.570378     0.684112
| 11> C     -1.495273    -0.408939     0.670318
| 12> C     -2.100185     0.471242    -0.245448
| 13> C     -1.294885     1.177363    -1.144318
| 14> C      0.093323     1.016943    -1.132952
| 15> O     -3.488183     0.668214    -0.296482
| 16> C     -4.424363     0.016813     0.555985
| 17> H      4.674608    -1.246603    -0.178684
| 18> H      4.818772    -0.980363     1.601657
| 19> H      4.834889     0.435121     0.480441
| 20> H      2.451319    -0.778705     1.695986
| 21> H      2.702172     0.355165    -1.134126
| 22> H      0.317168    -1.278077     1.382673
| 23> H     -2.089735    -0.978646     1.371504
| 24> H     -1.748028     1.854598    -1.857281
| 25> H      0.691624     1.577352    -1.841274
| 26> H     -4.218760     0.274451     1.616456
| 27> H     -4.370734    -1.083036     0.412187
| 28> H     -5.447728     0.359079     0.299210
| 29> *
| 30>
| 31>                          ****END OF INPUT****
 Total Charge           Charge          ....    0
 Multiplicity           Mult            ....    1
 Number of Electrons    NEL             ....   58
Dispersion correction           -0.026804865
FINAL SINGLE POINT ENERGY       -80.206249689273
Dispersion correction             ... done (  0.1 sec)
Dispersion correction           -0.027241206
FINAL SINGLE POINT ENERGY       -80.215720590720
Dispersion correction             ... done (  0.1 sec)
Dispersion correction           -0.027286037
FINAL SINGLE POINT ENERGY       -80.216395524557
Dispersion correction             ... done (  0.1 sec)
FINAL SINGLE POINT ENERGY       -80.216529736387
FINAL SINGLE POINT ENERGY       -80.216553321297
FINAL SINGLE POINT ENERGY       -80.216561569091
FINAL SINGLE POINT ENERGY       -80.216578159823
FINAL SINGLE POINT ENERGY       -80.216689508056
FINAL SINGLE POINT ENERGY       -80.216745058343
FINAL SINGLE POINT ENERGY       -80.214970159017
FINAL SINGLE POINT ENERGY       -80.218672843428
FINAL SINGLE POINT ENERGY       -80.219267780368
FINAL SINGLE POINT ENERGY       -80.219363549392
FINAL SINGLE POINT ENERGY       -80.219464657150
FINAL SINGLE POINT ENERGY       -80.219544186225
FINAL SINGLE POINT ENERGY       -80.219559889297
FINAL SINGLE POINT ENERGY       -80.219575729578
Dispersion correction             ... done (  0.1 sec)
Dispersion correction           -0.027256765
FINAL SINGLE POINT ENERGY       -80.219578702313
Dispersion correction             ... done (  0.1 sec)
Dispersion correction           -0.027256244
FINAL SINGLE POINT ENERGY       -80.219579253699
Dispersion correction             ... done (  0.1 sec)
                    ***********************HURRAY********************

CARTESIAN COORDINATES (ANGSTROEM)
---------------------------------
  C      4.368637   -0.599754    0.670588
  C      2.884953   -0.478924    0.733049
  C      2.130999    0.033086   -0.231304
  C      0.668509    0.165566   -0.214813
  C     -0.151340   -0.611627    0.588547
  C     -1.527021   -0.450558    0.599694
  C     -2.114079    0.503811   -0.217062
  C     -1.311494    1.280366   -1.043418
  C      0.053312    1.105670   -1.039581
  O     -3.445128    0.738792   -0.282652
  C     -4.299068   -0.019068    0.534446
  H      4.679504   -1.641609    0.757377
  H      4.839702   -0.058528    1.491884
  H      4.760139   -0.206432   -0.265858
  H      2.412659   -0.831041    1.644716
  H      2.622738    0.415640   -1.120658
  H      0.282963   -1.379365    1.213520
  H     -2.124499   -1.082274    1.238218
  H     -1.780948    2.014969   -1.681673
  H      0.664377    1.720261   -1.687891
  H     -4.072129    0.130316    1.591147
  H     -4.236705   -1.081844    0.295553
  H     -5.306081    0.332547    0.333050

 Multiplicity           Mult            ....    1
 Number of Electrons    NEL             ....   58
 Basis Dimension        Dim             ....  203

ORBITAL ENERGIES
----------------

  NO   OCC          E(Eh)            E(eV)
   0   2.0000      -1.200009       -32.6539
   1   2.0000      -1.006035       -27.3756
   2   2.0000      -0.942510       -25.6470
   3   2.0000      -0.897855       -24.4319
   4   2.0000      -0.890566       -24.2335
   5   2.0000      -0.845978       -23.0202
   6   2.0000      -0.800750       -21.7895
   7   2.0000      -0.749805       -20.4032
   8   2.0000      -0.718195       -19.5431
   9   2.0000      -0.677216       -18.4280
  10   2.0000      -0.659064       -17.9340
  11   2.0000      -0.611394       -16.6369
  12   2.0000      -0.601499       -16.3676
  13   2.0000      -0.594791       -16.1851
  14   2.0000      -0.564849       -15.3703
  15   2.0000      -0.546855       -14.8807
  16   2.0000      -0.536680       -14.6038
  17   2.0000      -0.528295       -14.3756
  18   2.0000      -0.519428       -14.1344
  19   2.0000      -0.515129       -14.0174
  20   2.0000      -0.500170       -13.6103
  21   2.0000      -0.472422       -12.8553
  22   2.0000      -0.467590       -12.7238
  23   2.0000      -0.450168       -12.2497
  24   2.0000      -0.444420       -12.0933
  25   2.0000      -0.432069       -11.7572
  26   2.0000      -0.375294       -10.2123
  27   2.0000      -0.351935        -9.5766
  28   2.0000      -0.294852        -8.0233
  29   0.0000       0.052521         1.4292
  30   0.0000       0.070684         1.9234
  31   0.0000       0.086937         2.3657
  32   0.0000       0.095265         2.5923
  33   0.0000       0.098938         2.6922

MULLIKEN ATOMIC CHARGES
-----------------------
   0 C :   -0.064342
   1 C :   -0.040138
   2 C :   -0.012878
   3 C :   -0.088927
   4 C :   -0.000701
   5 C :   -0.051486
   6 C :    0.091112
   7 C :    0.014028
   8 C :    0.016131
   9 O :   -0.289834
  10 C :    0.092125
  11 H :    0.043433
  12 H :    0.041907
  13 H :    0.027761
  14 H :    0.021086
  15 H :    0.015043
  16 H :    0.012406
  17 H :    0.010094
  18 H :    0.018720
  19 H :    0.015860
  20 H :    0.039437
  21 H :    0.039264
  22 H :    0.049898
Sum of atomic charges:    0.0000000

LOEWDIN ATOMIC CHARGES
----------------------
   0 C :   -0.116152
   1 C :   -0.046703
   2 C :   -0.053234
   3 C :   -0.063571
   4 C :   -0.026715
   5 C :   -0.060528
   6 C :   -0.037461
   7 C :   -0.036880
   8 C :   -0.029981
   9 O :   -0.030835
  10 C :   -0.061295
  11 H :    0.049641
  12 H :    0.049589
  13 H :    0.048983
  14 H :    0.037834
  15 H :    0.044222
  16 H :    0.045875
  17 H :    0.039951
  18 H :    0.050658
  19 H :    0.048204
  20 H :    0.045257
  21 H :    0.045136
  22 H :    0.058004

  Mayer bond orders larger than 0.100000
B(  0-C ,  1-C ) :   1.0359 B(  0-C , 11-H ) :   0.9782 B(  0-C , 12-H ) :   0.9789
B(  0-C , 13-H ) :   0.9918 B(  1-C ,  2-C ) :   1.8374 B(  1-C , 14-H ) :   0.9942
B(  2-C ,  3-C ) :   1.1235 B(  2-C , 15-H ) :   0.9905 B(  3-C ,  4-C ) :   1.4495
B(  3-C ,  8-C ) :   1.3936 B(  4-C ,  5-C ) :   1.4539 B(  4-C , 16-H ) :   0.9832
B(  5-C ,  6-C ) :   1.4378 B(  5-C , 17-H ) :   0.9799 B(  6-C ,  7-C ) :   1.4125
B(  6-C ,  9-O ) :   1.0780 B(  7-C ,  8-C ) :   1.4817 B(  7-C , 18-H ) :   0.9785
B(  8-C , 19-H ) :   0.9858 B(  9-O , 10-C ) :   0.9441 B( 10-C , 20-H ) :   0.9894
B( 10-C , 21-H ) :   0.9897 B( 10-C , 22-H ) :   1.0042

Dispersion correction           -0.027256125
FINAL SINGLE POINT ENERGY       -80.219579373892

DIPOLE MOMENT
-------------

Method             : SCF
Type of density    : Electron Density
Multiplicity       :   1
Irrep              :   0
Energy             :   -80.1923232491796512 Eh
Relativity type    :
Basis              : AO
                                X                 Y                 Z
Electronic contribution:     -4.032151720       3.121176732      -3.587844828
Nuclear contribution   :      3.906654396      -3.501775391       3.995247389
                        -----------------------------------------
Total Dipole Moment    :     -0.125497324      -0.380598659       0.407402561
                        -----------------------------------------
Magnitude (a.u.)       :      0.571473327
Magnitude (Debye)      :      1.452569760

VIBRATIONAL FREQUENCIES
-----------------------

Scaling factor for frequencies =  1.000000000  (already applied!)

     0:       0.00 cm**-1
     1:       0.00 cm**-1
     2:       0.00 cm**-1
     3:       0.00 cm**-1
     4:       0.00 cm**-1
     5:       0.00 cm**-1
     6:      49.57 cm**-1
     7:      76.01 cm**-1
     8:     114.68 cm**-1
     9:     123.93 cm**-1
    10:     196.45 cm**-1
    11:     211.93 cm**-1
    12:     258.28 cm**-1
    13:     266.83 cm**-1
    14:     332.18 cm**-1
    15:     392.15 cm**-1
    16:     402.44 cm**-1
    17:     432.16 cm**-1
    18:     511.85 cm**-1
    19:     541.18 cm**-1
    20:     583.96 cm**-1
    21:     663.39 cm**-1
    22:     743.46 cm**-1
    23:     794.87 cm**-1
    24:     825.97 cm**-1
    25:     841.11 cm**-1
    26:     872.87 cm**-1
    27:     887.53 cm**-1
    28:     975.48 cm**-1
    29:     983.85 cm**-1
    30:    1000.20 cm**-1
    31:    1013.44 cm**-1
    32:    1052.03 cm**-1
    33:    1091.65 cm**-1
    34:    1123.69 cm**-1
    35:    1146.15 cm**-1
    36:    1160.21 cm**-1
    37:    1204.98 cm**-1
    38:    1223.13 cm**-1
    39:    1233.19 cm**-1
    40:    1258.30 cm**-1
    41:    1322.64 cm**-1
    42:    1350.13 cm**-1
    43:    1357.26 cm**-1
    44:    1362.73 cm**-1
    45:    1381.63 cm**-1
    46:    1447.43 cm**-1
    47:    1491.59 cm**-1
    48:    1508.43 cm**-1
    49:    1509.71 cm**-1
    50:    1523.46 cm**-1
    51:    1528.87 cm**-1
    52:    1537.64 cm**-1
    53:    1598.99 cm**-1
    54:    1685.75 cm**-1
    55:    1730.92 cm**-1
    56:    1793.22 cm**-1
    57:    3088.46 cm**-1
    58:    3099.93 cm**-1
    59:    3174.88 cm**-1
    60:    3177.68 cm**-1
    61:    3201.53 cm**-1
    62:    3207.34 cm**-1
    63:    3219.84 cm**-1
    64:    3228.23 cm**-1
    65:    3246.26 cm**-1
    66:    3259.04 cm**-1
    67:    3276.45 cm**-1
    68:    3289.19 cm**-1

IR SPECTRUM
-----------

 Mode   freq       eps      Int      T**2         TX        TY        TZ
       cm**-1   L/(mol*cm) km/mol    a.u.
----------------------------------------------------------------------------
  6:     49.57   0.000062    0.31  0.000391  ( 0.011071  0.013263  0.009599)
  7:     76.01   0.000646    3.26  0.002651  ( 0.000291 -0.033710 -0.038911)
  8:    114.68   0.000122    0.61  0.000331  (-0.012691  0.004304 -0.012308)
  9:    123.93   0.000213    1.08  0.000536  ( 0.006163 -0.021324 -0.006562)
 10:    196.45   0.000535    2.71  0.000851  (-0.008561 -0.020514 -0.018878)
 11:    211.93   0.000241    1.22  0.000354  (-0.007229 -0.012532 -0.012037)
 12:    258.28   0.000160    0.81  0.000193  (-0.012764  0.003111 -0.004542)
 13:    266.83   0.000175    0.88  0.000205  (-0.003611 -0.010891 -0.008540)
 14:    332.18   0.000462    2.33  0.000434  (-0.016554  0.009359 -0.008491)
 15:    392.15   0.000435    2.20  0.000346  (-0.017497  0.005347  0.003422)
 16:    402.44   0.000051    0.26  0.000040  ( 0.001427 -0.001984  0.005805)
 17:    432.16   0.000070    0.35  0.000051  ( 0.006762 -0.002051  0.000762)
 18:    511.85   0.000069    0.35  0.000042  (-0.000824 -0.000162  0.006410)
 19:    541.18   0.003077   15.55  0.001775  (-0.006896 -0.025287 -0.032979)
 20:    583.96   0.004123   20.84  0.002204  ( 0.042898 -0.018981  0.001730)
 21:    663.39   0.000115    0.58  0.000054  (-0.002701 -0.004868  0.004825)
 22:    743.46   0.000383    1.94  0.000161  ( 0.009766  0.004867  0.006458)
 23:    794.87   0.002072   10.47  0.000813  (-0.024551  0.007051 -0.012690)
 24:    825.97   0.005671   28.66  0.002143  ( 0.000108  0.034177  0.031221)
 25:    841.11   0.000129    0.65  0.000048  (-0.002516 -0.002004 -0.006116)
 26:    872.87   0.004166   21.05  0.001489  ( 0.001627 -0.024216 -0.030006)
 27:    887.53   0.003912   19.77  0.001375  ( 0.016982  0.021492  0.025001)
 28:    975.48   0.001502    7.59  0.000481  ( 0.016049 -0.014471  0.003684)
 29:    983.85   0.001886    9.53  0.000598  ( 0.019384 -0.007613  0.012822)
 30:   1000.20   0.000343    1.73  0.000107  ( 0.000176  0.009348  0.004414)
 31:   1013.44   0.009034   45.65  0.002782  ( 0.006418  0.045649  0.025625)
 32:   1052.03   0.000008    0.04  0.000002  (-0.001148  0.001005  0.000197)
 33:   1091.65   0.000056    0.28  0.000016  ( 0.003742  0.001390  0.000168)
 34:   1123.69   0.010042   50.75  0.002789  (-0.035065 -0.026117  0.029617)
 35:   1146.15   0.000582    2.94  0.000158  ( 0.002398  0.009215 -0.008235)
 36:   1160.21   0.001789    9.04  0.000481  ( 0.006648 -0.014709  0.014857)
 37:   1204.98   0.000158    0.80  0.000041  ( 0.000133  0.004349  0.004699)
 38:   1223.13   0.004120   20.82  0.001051  ( 0.032408  0.000024 -0.000922)
 39:   1233.19   0.002175   10.99  0.000550  ( 0.020594  0.007224 -0.008613)
 40:   1258.30   0.000507    2.56  0.000126  ( 0.004893 -0.005735  0.008304)
 41:   1322.64   0.021766  110.00  0.005135  ( 0.071268  0.000215 -0.007498)
 42:   1350.13   0.026976  136.33  0.006235  (-0.078328 -0.002559  0.009658)
 43:   1357.26   0.000071    0.36  0.000016  ( 0.003391 -0.001712  0.001398)
 44:   1362.73   0.019904  100.59  0.004558  ( 0.067400 -0.001485 -0.003601)
 45:   1381.63   0.006831   34.52  0.001543  ( 0.036233  0.007918 -0.012938)
 46:   1447.43   0.000312    1.58  0.000067  (-0.003109 -0.002315  0.007230)
 47:   1491.59   0.000200    1.01  0.000042  (-0.006394 -0.000832 -0.000416)
 48:   1508.43   0.001725    8.72  0.000357  ( 0.017675 -0.005140  0.004258)
 49:   1509.71   0.002063   10.42  0.000426  ( 0.002858  0.018370  0.008988)
 50:   1523.46   0.003198   16.16  0.000655  ( 0.004114  0.010771 -0.022848)
 51:   1528.87   0.002253   11.39  0.000460  ( 0.000326 -0.014820 -0.015498)
 52:   1537.64   0.008018   40.52  0.001627  (-0.040256  0.002601 -0.000216)
 53:   1598.99   0.035955  181.70  0.007017  ( 0.083578 -0.004904 -0.002792)
 54:   1685.75   0.002391   12.08  0.000443  (-0.016117  0.010737 -0.008223)
 55:   1730.92   0.017342   87.64  0.003126  ( 0.055639 -0.001206 -0.005410)
 56:   1793.22   0.000246    1.25  0.000043  ( 0.006131  0.000748 -0.002176)
 57:   3088.46   0.011635   58.80  0.001176  ( 0.028937  0.011989 -0.013948)
 58:   3099.93   0.008327   42.08  0.000838  ( 0.028102 -0.005182  0.004661)
 59:   3174.88   0.005056   25.55  0.000497  (-0.001873 -0.015207 -0.016194)
 60:   3177.68   0.001581    7.99  0.000155  (-0.001819 -0.011233 -0.005080)
 61:   3201.53   0.000468    2.37  0.000046  ( 0.001625 -0.003292  0.005672)
 62:   3207.34   0.002716   13.72  0.000264  ( 0.013752  0.002061 -0.008419)
 63:   3219.84   0.004056   20.50  0.000393  ( 0.011049  0.004196 -0.015920)
 64:   3228.23   0.001765    8.92  0.000171  (-0.012270  0.003894 -0.002220)
 65:   3246.26   0.001792    9.05  0.000172  (-0.010068 -0.005443  0.006422)
 66:   3259.04   0.001200    6.07  0.000115  ( 0.006727 -0.007018  0.004521)
 67:   3276.45   0.000642    3.25  0.000061  (-0.003753  0.004955 -0.004746)
 68:   3289.19   0.001021    5.16  0.000097  ( 0.007966  0.004149 -0.004026)

--------------------------
THERMOCHEMISTRY AT 298.15K
--------------------------

Temperature         ...   298.15 K
Pressure            ...     1.00 atm
Total Mass          ...   148.21 AMU
Quasi RRHO          ...     True
Cut-Off Frequency   ...     1.00 cm^-1

Throughout the following assumptions are being made:
  (1) The electronic state is orbitally nondegenerate
  (2) There are no thermally accessible electronically excited states
  (3) Hindered rotations indicated by low frequency modes are not
      treated as such but are treated as vibrations and this may
      cause some error
  (4) All equations used are the standard statistical mechanics
      equations for an ideal gas
  (5) All vibrations are strictly harmonic

freq.      49.57  E(vib)   ...       0.52
freq.      76.01  E(vib)   ...       0.49
freq.     114.68  E(vib)   ...       0.44
freq.     123.93  E(vib)   ...       0.43
freq.     196.45  E(vib)   ...       0.36
freq.     211.93  E(vib)   ...       0.34
freq.     258.28  E(vib)   ...       0.30
freq.     266.83  E(vib)   ...       0.29
freq.     332.18  E(vib)   ...       0.24
freq.     392.15  E(vib)   ...       0.20
freq.     402.44  E(vib)   ...       0.19
freq.     432.16  E(vib)   ...       0.18
freq.     511.85  E(vib)   ...       0.14
freq.     541.18  E(vib)   ...       0.12
freq.     583.96  E(vib)   ...       0.11
freq.     663.39  E(vib)   ...       0.08
freq.     743.46  E(vib)   ...       0.06
freq.     794.87  E(vib)   ...       0.05
freq.     825.97  E(vib)   ...       0.04
freq.     841.11  E(vib)   ...       0.04
freq.     872.87  E(vib)   ...       0.04
freq.     887.53  E(vib)   ...       0.04
freq.     975.48  E(vib)   ...       0.03
freq.     983.85  E(vib)   ...       0.02
freq.    1000.20  E(vib)   ...       0.02
freq.    1013.44  E(vib)   ...       0.02
freq.    1052.03  E(vib)   ...       0.02
freq.    1091.65  E(vib)   ...       0.02
freq.    1123.69  E(vib)   ...       0.01
freq.    1146.15  E(vib)   ...       0.01
freq.    1160.21  E(vib)   ...       0.01
freq.    1204.98  E(vib)   ...       0.01
freq.    1223.13  E(vib)   ...       0.01
freq.    1233.19  E(vib)   ...       0.01
freq.    1258.30  E(vib)   ...       0.01
freq.    1322.64  E(vib)   ...       0.01
freq.    1350.13  E(vib)   ...       0.01
freq.    1357.26  E(vib)   ...       0.01
freq.    1362.73  E(vib)   ...       0.01
freq.    1381.63  E(vib)   ...       0.01
freq.    1447.43  E(vib)   ...       0.00
freq.    1491.59  E(vib)   ...       0.00
freq.    1508.43  E(vib)   ...       0.00
freq.    1509.71  E(vib)   ...       0.00
freq.    1523.46  E(vib)   ...       0.00
freq.    1528.87  E(vib)   ...       0.00
freq.    1537.64  E(vib)   ...       0.00
freq.    1598.99  E(vib)   ...       0.00
freq.    1685.75  E(vib)   ...       0.00
freq.    1730.92  E(vib)   ...       0.00
freq.    1793.22  E(vib)   ...       0.00
freq.    3088.46  E(vib)   ...       0.00
freq.    3099.93  E(vib)   ...       0.00
freq.    3174.88  E(vib)   ...       0.00
freq.    3177.68  E(vib)   ...       0.00
freq.    3201.53  E(vib)   ...       0.00
freq.    3207.34  E(vib)   ...       0.00
freq.    3219.84  E(vib)   ...       0.00
freq.    3228.23  E(vib)   ...       0.00
freq.    3246.26  E(vib)   ...       0.00
freq.    3259.04  E(vib)   ...       0.00
freq.    3276.45  E(vib)   ...       0.00
freq.    3289.19  E(vib)   ...       0.00

------------
INNER ENERGY
------------

The inner energy is: U= E(el) + E(ZPE) + E(vib) + E(rot) + E(trans)
    E(el)   - is the total energy from the electronic structure calculation
              = E(kin-el) + E(nuc-el) + E(el-el) + E(nuc-nuc)
    E(ZPE)  - the the zero temperature vibrational energy from the frequency calculation
    E(vib)  - the the finite temperature correction to E(ZPE) due to population
              of excited vibrational states
    E(rot)  - is the rotational thermal energy
    E(trans)- is the translational thermal energy

Summary of contributions to the inner energy U:
Electronic energy                ...    -80.21957937 Eh
Zero point energy                ...      0.19862960 Eh     124.64 kcal/mol
Thermal vibrational correction   ...      0.00790303 Eh       4.96 kcal/mol
Thermal rotational correction    ...      0.00141627 Eh       0.89 kcal/mol
Thermal translational correction ...      0.00141627 Eh       0.89 kcal/mol
-----------------------------------------------------------------------
Total thermal energy                    -80.01021420 Eh

Summary of corrections to the electronic energy:
(perhaps to be used in another calculation)
Total thermal correction                  0.01073558 Eh       6.74 kcal/mol
Non-thermal (ZPE) correction              0.19862960 Eh     124.64 kcal/mol
-----------------------------------------------------------------------
Total correction                          0.20936517 Eh     131.38 kcal/mol

--------
ENTHALPY
--------

The enthalpy is H = U + kB*T
                kB is Boltzmann's constant
Total thermal energy              ...    -80.01021420 Eh
Thermal Enthalpy correction       ...      0.00094421 Eh       0.59 kcal/mol
-----------------------------------------------------------------------
Total Enthalpy                    ...    -80.00926999 Eh

Note: Only C1 symmetry has been detected, increase convergence thresholds
      if your molecule has a higher symmetry. Symmetry factor of 1.0 is
      used for the rotational entropy correction.

Note: Rotational entropy computed according to Herzberg
Infrared and Raman Spectra, Chapter V,1, Van Nostrand Reinhold, 1945
Point Group:  C1, Symmetry Number:   1
Rotational constants in cm-1:     0.131892     0.015835     0.014263

Vibrational entropy computed according to the QRRHO of S. Grimme
Chem.Eur.J. 2012 18 9955 using a reference frequency of 100.0 cm-1

-------
ENTROPY
-------

The entropy contributions are T*S = T*(S(el)+S(vib)+S(rot)+S(trans))
     S(el)   - electronic entropy
     S(vib)  - vibrational entropy
     S(rot)  - rotational entropy
     S(trans)- translational entropy
The entropies will be listed as multiplied by the temperature to get
units of energy

Electronic entropy                ...      0.00000000 Eh      0.00 kcal/mol
Vibrational entropy               ...      0.01361801 Eh      8.55 kcal/mol
Rotational entropy                ...      0.01443064 Eh      9.06 kcal/mol
Translational entropy             ...      0.01942844 Eh     12.19 kcal/mol
-----------------------------------------------------------------------
Final entropy term                ...      0.04747709 Eh     29.79 kcal/mol

In case the symmetry of your molecule has not been determined correctly
or in case you have a reason to use a different symmetry number we print

                             ****ORCA TERMINATED NORMALLY****
TOTAL RUN TIME: 0 days 0 hours 21 minutes 35 seconds 909 msec
