                         Program Version 6.0.1  -  RELEASE   -
|  1> ! wB97X-3c OPT FREQ TightSCF
|  2> %pal
|  3>   nprocs 40
|  4> end
|  5> * xyz 0 1
|  6> C      4.001966     0.628334     1.087029
|  7> O      3.005290     1.155730     0.217599
|  8> C      1.745548     0.573810     0.012079
|  9> C      1.344669    -0.609165     0.662214
| 10> C      0.077604    -1.149833     0.423466
| 11> C     -0.803986    -0.524064    -0.471405
| 12> C     -0.407026     0.660053    -1.111495
| 13> C      0.859765     1.200241    -0.872350
| 14> C     -2.178131    -1.093543    -0.703532
| 15> C     -3.112257    -0.701331     0.406730
| 16> C     -3.563195     0.549884     0.536290
| 17> H      4.298125    -0.389332     0.755541
| 18> H      3.620558     0.595216     2.129460
| 19> H      4.894750     1.285859     1.056174
| 20> H      2.002405    -1.116254     1.354789
| 21> H     -0.218088    -2.056287     0.937391
| 22> H     -1.078105     1.165997    -1.794523
| 23> H      1.154446     2.112652    -1.375217
| 24> H     -2.112991    -2.202346    -0.745335
| 25> H     -2.590071    -0.756322    -1.680032
| 26> H     -3.437479    -1.458037     1.114597
| 27> H     -4.240626     0.801706     1.345644
| 28> H     -3.263172     1.327034    -0.159998
| 29> *
| 30>
| 31>                          ****END OF INPUT****
 Total Charge           Charge          ....    0
 Multiplicity           Mult            ....    1
 Number of Electrons    NEL             ....   58
Dispersion correction           -0.027481051
FINAL SINGLE POINT ENERGY       -80.198625935659
Dispersion correction             ... done (  0.1 sec)
Dispersion correction           -0.027813760
FINAL SINGLE POINT ENERGY       -80.207585339989
Dispersion correction             ... done (  0.1 sec)
Dispersion correction           -0.027803250
FINAL SINGLE POINT ENERGY       -80.208248535649
Dispersion correction             ... done (  0.1 sec)
FINAL SINGLE POINT ENERGY       -80.208629218899
FINAL SINGLE POINT ENERGY       -80.209382258572
FINAL SINGLE POINT ENERGY       -80.209991724313
FINAL SINGLE POINT ENERGY       -80.211075052342
FINAL SINGLE POINT ENERGY       -80.211555658981
FINAL SINGLE POINT ENERGY       -80.212049303175
FINAL SINGLE POINT ENERGY       -80.212228028024
FINAL SINGLE POINT ENERGY       -80.212332396458
FINAL SINGLE POINT ENERGY       -80.212455829501
FINAL SINGLE POINT ENERGY       -80.212591835514
FINAL SINGLE POINT ENERGY       -80.212691205325
FINAL SINGLE POINT ENERGY       -80.212742821268
Dispersion correction             ... done (  0.1 sec)
Dispersion correction           -0.027600367
FINAL SINGLE POINT ENERGY       -80.212757708693
Dispersion correction             ... done (  0.1 sec)
Dispersion correction           -0.027601707
FINAL SINGLE POINT ENERGY       -80.212759288779
Dispersion correction             ... done (  0.1 sec)
                    ***********************HURRAY********************

CARTESIAN COORDINATES (ANGSTROEM)
---------------------------------
  C      4.132560    0.432833    0.798268
  O      3.069229    1.174874    0.260735
  C      1.857625    0.579548    0.157078
  C      1.588250   -0.720138    0.547145
  C      0.303490   -1.227261    0.393747
  C     -0.719817   -0.470231   -0.140088
  C     -0.427508    0.837105   -0.521914
  C      0.837083    1.358017   -0.380566
  C     -2.108373   -1.027794   -0.312636
  C     -3.149251   -0.216029    0.390469
  C     -4.194791    0.342429   -0.197050
  H      4.346125   -0.449569    0.192949
  H      3.923791    0.127495    1.824814
  H      4.997807    1.088246    0.790480
  H      2.356127   -1.349086    0.969586
  H      0.107557   -2.246266    0.702124
  H     -1.212612    1.458231   -0.933222
  H      1.062278    2.372053   -0.678453
  H     -2.127379   -2.047874    0.074769
  H     -2.356070   -1.091681   -1.373742
  H     -3.003632   -0.082218    1.458080
  H     -4.916480    0.920449    0.364593
  H     -4.366009    0.236868   -1.262051

 Multiplicity           Mult            ....    1
 Number of Electrons    NEL             ....   58
 Basis Dimension        Dim             ....  203

ORBITAL ENERGIES
----------------

  NO   OCC          E(Eh)            E(eV)
   0   2.0000      -1.199166       -32.6310
   1   2.0000      -1.005906       -27.3721
   2   2.0000      -0.944917       -25.7125
   3   2.0000      -0.898660       -24.4538
   4   2.0000      -0.887118       -24.1397
   5   2.0000      -0.847565       -23.0634
   6   2.0000      -0.798269       -21.7220
   7   2.0000      -0.743908       -20.2428
   8   2.0000      -0.710802       -19.3419
   9   2.0000      -0.681937       -18.5565
  10   2.0000      -0.658401       -17.9160
  11   2.0000      -0.614500       -16.7214
  12   2.0000      -0.595536       -16.2054
  13   2.0000      -0.594169       -16.1682
  14   2.0000      -0.570435       -15.5223
  15   2.0000      -0.557633       -15.1740
  16   2.0000      -0.548295       -14.9199
  17   2.0000      -0.538676       -14.6581
  18   2.0000      -0.530728       -14.4418
  19   2.0000      -0.497109       -13.5270
  20   2.0000      -0.490323       -13.3424
  21   2.0000      -0.472797       -12.8655
  22   2.0000      -0.463033       -12.5998
  23   2.0000      -0.452254       -12.3064
  24   2.0000      -0.433036       -11.7835
  25   2.0000      -0.427427       -11.6309
  26   2.0000      -0.366774        -9.9804
  27   2.0000      -0.350291        -9.5319
  28   2.0000      -0.311041        -8.4639
  29   0.0000       0.064514         1.7555
  30   0.0000       0.078178         2.1273
  31   0.0000       0.086494         2.3536
  32   0.0000       0.098548         2.6816
  33   0.0000       0.100209         2.7268

MULLIKEN ATOMIC CHARGES
-----------------------
   0 C :    0.091674
   1 O :   -0.291461
   2 C :    0.092273
   3 C :   -0.050691
   4 C :   -0.007703
   5 C :   -0.095441
   6 C :    0.031115
   7 C :    0.013774
   8 C :   -0.059979
   9 C :   -0.038791
  10 C :   -0.036769
  11 H :    0.038985
  12 H :    0.039029
  13 H :    0.049814
  14 H :    0.009715
  15 H :    0.011372
  16 H :    0.019482
  17 H :    0.019122
  18 H :    0.047072
  19 H :    0.044770
  20 H :    0.021096
  21 H :    0.027986
  22 H :    0.023555
Sum of atomic charges:    0.0000000

LOEWDIN ATOMIC CHARGES
----------------------
   0 C :   -0.061845
   1 O :   -0.031917
   2 C :   -0.038708
   3 C :   -0.062161
   4 C :   -0.038783
   5 C :   -0.053919
   6 C :   -0.028739
   7 C :   -0.034472
   8 C :   -0.081489
   9 C :   -0.044520
  10 C :   -0.078941
  11 H :    0.045027
  12 H :    0.045026
  13 H :    0.057846
  14 H :    0.039244
  15 H :    0.045378
  16 H :    0.049822
  17 H :    0.050662
  18 H :    0.055598
  19 H :    0.054646
  20 H :    0.043252
  21 H :    0.036412
  22 H :    0.032579

  Mayer bond orders larger than 0.100000
B(  0-C ,  1-O ) :   0.9448 B(  0-C , 11-H ) :   0.9895 B(  0-C , 12-H ) :   0.9896
B(  0-C , 13-H ) :   1.0042 B(  1-O ,  2-C ) :   1.0760 B(  2-C ,  3-C ) :   1.4557
B(  2-C ,  7-C ) :   1.4021 B(  3-C ,  4-C ) :   1.4307 B(  3-C , 14-H ) :   0.9800
B(  4-C ,  5-C ) :   1.4858 B(  4-C , 15-H ) :   0.9841 B(  5-C ,  6-C ) :   1.4130
B(  5-C ,  8-C ) :   1.0170 B(  6-C ,  7-C ) :   1.4926 B(  6-C , 16-H ) :   0.9812
B(  7-C , 17-H ) :   0.9798 B(  8-C ,  9-C ) :   1.0211 B(  8-C , 18-H ) :   0.9827
B(  8-C , 19-H ) :   0.9797 B(  9-C , 10-C ) :   1.9358 B(  9-C , 20-H ) :   1.0029
B( 10-C , 21-H ) :   0.9955 B( 10-C , 22-H ) :   0.9963

Dispersion correction           -0.027601193
FINAL SINGLE POINT ENERGY       -80.212759592879

DIPOLE MOMENT
-------------

Method             : SCF
Type of density    : Electron Density
Multiplicity       :   1
Irrep              :   0
Energy             :   -80.1851584000439743 Eh
Relativity type    :
Basis              : AO
                                X                 Y                 Z
Electronic contribution:      0.738993955       1.222952119      -1.133078370
Nuclear contribution   :     -0.385316525      -1.649053181       1.336264790
                        -----------------------------------------
Total Dipole Moment    :      0.353677430      -0.426101062       0.203186420
                        -----------------------------------------
Magnitude (a.u.)       :      0.589859781
Magnitude (Debye)      :      1.499304411

VIBRATIONAL FREQUENCIES
-----------------------

Scaling factor for frequencies =  1.000000000  (already applied!)

     0:       0.00 cm**-1
     1:       0.00 cm**-1
     2:       0.00 cm**-1
     3:       0.00 cm**-1
     4:       0.00 cm**-1
     5:       0.00 cm**-1
     6:      28.92 cm**-1
     7:      73.44 cm**-1
     8:      82.60 cm**-1
     9:     125.42 cm**-1
    10:     210.34 cm**-1
    11:     229.00 cm**-1
    12:     266.48 cm**-1
    13:     340.27 cm**-1
    14:     371.34 cm**-1
    15:     410.62 cm**-1
    16:     434.92 cm**-1
    17:     466.05 cm**-1
    18:     536.88 cm**-1
    19:     552.24 cm**-1
    20:     653.70 cm**-1
    21:     664.22 cm**-1
    22:     742.26 cm**-1
    23:     798.01 cm**-1
    24:     840.82 cm**-1
    25:     860.09 cm**-1
    26:     882.56 cm**-1
    27:     934.62 cm**-1
    28:     963.28 cm**-1
    29:     973.06 cm**-1
    30:     979.30 cm**-1
    31:    1006.67 cm**-1
    32:    1049.48 cm**-1
    33:    1053.93 cm**-1
    34:    1123.62 cm**-1
    35:    1146.82 cm**-1
    36:    1158.71 cm**-1
    37:    1205.09 cm**-1
    38:    1223.46 cm**-1
    39:    1233.64 cm**-1
    40:    1257.81 cm**-1
    41:    1262.22 cm**-1
    42:    1319.14 cm**-1
    43:    1341.62 cm**-1
    44:    1355.65 cm**-1
    45:    1362.07 cm**-1
    46:    1392.41 cm**-1
    47:    1477.27 cm**-1
    48:    1495.36 cm**-1
    49:    1507.57 cm**-1
    50:    1511.12 cm**-1
    51:    1528.47 cm**-1
    52:    1537.66 cm**-1
    53:    1598.80 cm**-1
    54:    1692.84 cm**-1
    55:    1733.69 cm**-1
    56:    1768.68 cm**-1
    57:    3087.75 cm**-1
    58:    3104.64 cm**-1
    59:    3159.16 cm**-1
    60:    3173.53 cm**-1
    61:    3202.78 cm**-1
    62:    3219.23 cm**-1
    63:    3228.09 cm**-1
    64:    3242.99 cm**-1
    65:    3248.06 cm**-1
    66:    3275.19 cm**-1
    67:    3288.87 cm**-1
    68:    3303.76 cm**-1

IR SPECTRUM
-----------

 Mode   freq       eps      Int      T**2         TX        TY        TZ
       cm**-1   L/(mol*cm) km/mol    a.u.
----------------------------------------------------------------------------
  6:     28.92   0.000067    0.34  0.000723  (-0.005513  0.009903  0.024388)
  7:     73.44   0.000177    0.89  0.000751  ( 0.003445 -0.014329 -0.023115)
  8:     82.60   0.000498    2.52  0.001882  (-0.013320  0.009784  0.040110)
  9:    125.42   0.000231    1.17  0.000574  (-0.006722  0.006735  0.021997)
 10:    210.34   0.000175    0.88  0.000259  ( 0.005713  0.013577  0.006491)
 11:    229.00   0.000225    1.14  0.000307  (-0.011040 -0.008649  0.010502)
 12:    266.48   0.000018    0.09  0.000022  (-0.001238  0.001068  0.004340)
 13:    340.27   0.000597    3.02  0.000547  (-0.011914 -0.013795 -0.014666)
 14:    371.34   0.000253    1.28  0.000213  ( 0.004626  0.006627 -0.012151)
 15:    410.62   0.000647    3.27  0.000492  (-0.020442  0.000796  0.008560)
 16:    434.92   0.000117    0.59  0.000084  ( 0.008658  0.000579 -0.002951)
 17:    466.05   0.000106    0.53  0.000071  ( 0.008334  0.001058  0.000474)
 18:    536.88   0.002700   13.65  0.001569  (-0.025564  0.006508  0.029556)
 19:    552.24   0.002101   10.62  0.001187  (-0.003203  0.006571  0.033673)
 20:    653.70   0.004762   24.07  0.002273  ( 0.025224  0.040394  0.002331)
 21:    664.22   0.000256    1.30  0.000120  ( 0.007768  0.006900  0.003534)
 22:    742.26   0.000306    1.54  0.000128  (-0.009428 -0.005125  0.003650)
 23:    798.01   0.001709    8.63  0.000668  (-0.019902  0.003341  0.016153)
 24:    840.82   0.002550   12.89  0.000946  (-0.003953  0.012906  0.027645)
 25:    860.09   0.005744   29.03  0.002084  (-0.004226  0.021052  0.040286)
 26:    882.56   0.004408   22.27  0.001558  ( 0.021131  0.003781 -0.033131)
 27:    934.62   0.002706   13.68  0.000904  (-0.025539 -0.011216 -0.011205)
 28:    963.28   0.008992   45.44  0.002913  (-0.032122 -0.042828  0.006867)
 29:    973.06   0.000332    1.68  0.000107  ( 0.000841 -0.008402  0.005939)
 30:    979.30   0.000417    2.11  0.000133  ( 0.000228 -0.009581  0.006407)
 31:   1006.67   0.000023    0.12  0.000007  (-0.000655 -0.000966 -0.002393)
 32:   1049.48   0.002683   13.56  0.000798  ( 0.017891  0.021568 -0.003522)
 33:   1053.93   0.001256    6.35  0.000372  ( 0.017194  0.008692  0.000766)
 34:   1123.62   0.009826   49.65  0.002729  ( 0.039525 -0.027536  0.020209)
 35:   1146.82   0.001422    7.19  0.000387  (-0.011980  0.014710 -0.005207)
 36:   1158.71   0.001783    9.01  0.000480  ( 0.009113  0.018459 -0.007509)
 37:   1205.09   0.000162    0.82  0.000042  ( 0.001513 -0.002086 -0.005946)
 38:   1223.46   0.003716   18.78  0.000948  ( 0.030255  0.001311  0.005543)
 39:   1233.64   0.001519    7.68  0.000384  (-0.017181  0.007070 -0.006261)
 40:   1257.81   0.000396    2.00  0.000098  ( 0.007035 -0.004591  0.005272)
 41:   1262.22   0.000076    0.39  0.000019  ( 0.004033  0.001600 -0.000238)
 42:   1319.14   0.032520  164.34  0.007693  ( 0.083980  0.019522  0.016103)
 43:   1341.62   0.002408   12.17  0.000560  (-0.023548 -0.000998 -0.002164)
 44:   1355.65   0.003000   15.16  0.000691  ( 0.024412 -0.004408  0.008676)
 45:   1362.07   0.019093   96.49  0.004374  (-0.064283 -0.011354 -0.010640)
 46:   1392.41   0.009272   46.86  0.002078  ( 0.044421 -0.001261  0.010155)
 47:   1477.27   0.001399    7.07  0.000296  ( 0.013526 -0.005906  0.008820)
 48:   1495.36   0.000584    2.95  0.000122  ( 0.010871  0.001579 -0.001108)
 49:   1507.57   0.001694    8.56  0.000351  ( 0.015298  0.010793  0.000384)
 50:   1511.12   0.002441   12.34  0.000504  (-0.012020 -0.013150 -0.013667)
 51:   1528.47   0.002263   11.44  0.000462  ( 0.005781 -0.006648 -0.019606)
 52:   1537.66   0.006940   35.07  0.001408  ( 0.035772  0.009971  0.005413)
 53:   1598.80   0.035679  180.31  0.006964  (-0.080213 -0.019477 -0.012276)
 54:   1692.84   0.003268   16.51  0.000602  ( 0.015794  0.018717 -0.001604)
 55:   1733.69   0.010224   51.67  0.001840  ( 0.041027  0.010530  0.006807)
 56:   1768.68   0.004316   21.81  0.000761  ( 0.025112 -0.010581  0.004343)
 57:   3087.75   0.010965   55.41  0.001108  (-0.029840  0.009865 -0.010975)
 58:   3104.64   0.004354   22.00  0.000438  (-0.006752 -0.017724 -0.008824)
 59:   3159.16   0.001130    5.71  0.000112  ( 0.002096 -0.005513  0.008766)
 60:   3173.53   0.005132   25.93  0.000505  (-0.005245  0.007241  0.020608)
 61:   3202.78   0.001952    9.86  0.000190  (-0.007956  0.001761 -0.011125)
 62:   3219.23   0.001031    5.21  0.000100  ( 0.003915 -0.000524 -0.009182)
 63:   3228.09   0.001838    9.29  0.000178  (-0.011039 -0.007470 -0.000121)
 64:   3242.99   0.001932    9.77  0.000186  ( 0.006006  0.012021 -0.002318)
 65:   3248.06   0.000925    4.68  0.000089  ( 0.007902 -0.003212  0.004017)
 66:   3275.19   0.000480    2.43  0.000046  (-0.002315 -0.005989  0.002130)
 67:   3288.87   0.000984    4.97  0.000093  ( 0.008370 -0.003717  0.003079)
 68:   3303.76   0.000987    4.99  0.000093  (-0.003746  0.003422  0.008214)

--------------------------
THERMOCHEMISTRY AT 298.15K
--------------------------

Temperature         ...   298.15 K
Pressure            ...     1.00 atm
Total Mass          ...   148.21 AMU
Quasi RRHO          ...     True
Cut-Off Frequency   ...     1.00 cm^-1

Throughout the following assumptions are being made:
  (1) The electronic state is orbitally nondegenerate
  (2) There are no thermally accessible electronically excited states
  (3) Hindered rotations indicated by low frequency modes are not
      treated as such but are treated as vibrations and this may
      cause some error
  (4) All equations used are the standard statistical mechanics
      equations for an ideal gas
  (5) All vibrations are strictly harmonic

freq.      28.92  E(vib)   ...       0.55
freq.      73.44  E(vib)   ...       0.49
freq.      82.60  E(vib)   ...       0.48
freq.     125.42  E(vib)   ...       0.43
freq.     210.34  E(vib)   ...       0.34
freq.     229.00  E(vib)   ...       0.32
freq.     266.48  E(vib)   ...       0.29
freq.     340.27  E(vib)   ...       0.23
freq.     371.34  E(vib)   ...       0.21
freq.     410.62  E(vib)   ...       0.19
freq.     434.92  E(vib)   ...       0.17
freq.     466.05  E(vib)   ...       0.16
freq.     536.88  E(vib)   ...       0.12
freq.     552.24  E(vib)   ...       0.12
freq.     653.70  E(vib)   ...       0.08
freq.     664.22  E(vib)   ...       0.08
freq.     742.26  E(vib)   ...       0.06
freq.     798.01  E(vib)   ...       0.05
freq.     840.82  E(vib)   ...       0.04
freq.     860.09  E(vib)   ...       0.04
freq.     882.56  E(vib)   ...       0.04
freq.     934.62  E(vib)   ...       0.03
freq.     963.28  E(vib)   ...       0.03
freq.     973.06  E(vib)   ...       0.03
freq.     979.30  E(vib)   ...       0.03
freq.    1006.67  E(vib)   ...       0.02
freq.    1049.48  E(vib)   ...       0.02
freq.    1053.93  E(vib)   ...       0.02
freq.    1123.62  E(vib)   ...       0.01
freq.    1146.82  E(vib)   ...       0.01
freq.    1158.71  E(vib)   ...       0.01
freq.    1205.09  E(vib)   ...       0.01
freq.    1223.46  E(vib)   ...       0.01
freq.    1233.64  E(vib)   ...       0.01
freq.    1257.81  E(vib)   ...       0.01
freq.    1262.22  E(vib)   ...       0.01
freq.    1319.14  E(vib)   ...       0.01
freq.    1341.62  E(vib)   ...       0.01
freq.    1355.65  E(vib)   ...       0.01
freq.    1362.07  E(vib)   ...       0.01
freq.    1392.41  E(vib)   ...       0.00
freq.    1477.27  E(vib)   ...       0.00
freq.    1495.36  E(vib)   ...       0.00
freq.    1507.57  E(vib)   ...       0.00
freq.    1511.12  E(vib)   ...       0.00
freq.    1528.47  E(vib)   ...       0.00
freq.    1537.66  E(vib)   ...       0.00
freq.    1598.80  E(vib)   ...       0.00
freq.    1692.84  E(vib)   ...       0.00
freq.    1733.69  E(vib)   ...       0.00
freq.    1768.68  E(vib)   ...       0.00
freq.    3087.75  E(vib)   ...       0.00
freq.    3104.64  E(vib)   ...       0.00
freq.    3159.16  E(vib)   ...       0.00
freq.    3173.53  E(vib)   ...       0.00
freq.    3202.78  E(vib)   ...       0.00
freq.    3219.23  E(vib)   ...       0.00
freq.    3228.09  E(vib)   ...       0.00
freq.    3242.99  E(vib)   ...       0.00
freq.    3248.06  E(vib)   ...       0.00
freq.    3275.19  E(vib)   ...       0.00
freq.    3288.87  E(vib)   ...       0.00
freq.    3303.76  E(vib)   ...       0.00

------------
INNER ENERGY
------------

The inner energy is: U= E(el) + E(ZPE) + E(vib) + E(rot) + E(trans)
    E(el)   - is the total energy from the electronic structure calculation
              = E(kin-el) + E(nuc-el) + E(el-el) + E(nuc-nuc)
    E(ZPE)  - the the zero temperature vibrational energy from the frequency calculation
    E(vib)  - the the finite temperature correction to E(ZPE) due to population
              of excited vibrational states
    E(rot)  - is the rotational thermal energy
    E(trans)- is the translational thermal energy

Summary of contributions to the inner energy U:
Electronic energy                ...    -80.21275959 Eh
Zero point energy                ...      0.19888009 Eh     124.80 kcal/mol
Thermal vibrational correction   ...      0.00768035 Eh       4.82 kcal/mol
Thermal rotational correction    ...      0.00141627 Eh       0.89 kcal/mol
Thermal translational correction ...      0.00141627 Eh       0.89 kcal/mol
-----------------------------------------------------------------------
Total thermal energy                    -80.00336661 Eh

Summary of corrections to the electronic energy:
(perhaps to be used in another calculation)
Total thermal correction                  0.01051289 Eh       6.60 kcal/mol
Non-thermal (ZPE) correction              0.19888009 Eh     124.80 kcal/mol
-----------------------------------------------------------------------
Total correction                          0.20939298 Eh     131.40 kcal/mol

--------
ENTHALPY
--------

The enthalpy is H = U + kB*T
                kB is Boltzmann's constant
Total thermal energy              ...    -80.00336661 Eh
Thermal Enthalpy correction       ...      0.00094421 Eh       0.59 kcal/mol
-----------------------------------------------------------------------
Total Enthalpy                    ...    -80.00242240 Eh

Note: Only C1 symmetry has been detected, increase convergence thresholds
      if your molecule has a higher symmetry. Symmetry factor of 1.0 is
      used for the rotational entropy correction.

Note: Rotational entropy computed according to Herzberg
Infrared and Raman Spectra, Chapter V,1, Van Nostrand Reinhold, 1945
Point Group:  C1, Symmetry Number:   1
Rotational constants in cm-1:     0.124602     0.016923     0.015447

Vibrational entropy computed according to the QRRHO of S. Grimme
Chem.Eur.J. 2012 18 9955 using a reference frequency of 100.0 cm-1

-------
ENTROPY
-------

The entropy contributions are T*S = T*(S(el)+S(vib)+S(rot)+S(trans))
     S(el)   - electronic entropy
     S(vib)  - vibrational entropy
     S(rot)  - rotational entropy
     S(trans)- translational entropy
The entropies will be listed as multiplied by the temperature to get
units of energy

Electronic entropy                ...      0.00000000 Eh      0.00 kcal/mol
Vibrational entropy               ...      0.01332144 Eh      8.36 kcal/mol
Rotational entropy                ...      0.01438848 Eh      9.03 kcal/mol
Translational entropy             ...      0.01942844 Eh     12.19 kcal/mol
-----------------------------------------------------------------------
Final entropy term                ...      0.04713836 Eh     29.58 kcal/mol

In case the symmetry of your molecule has not been determined correctly
or in case you have a reason to use a different symmetry number we print

                             ****ORCA TERMINATED NORMALLY****
TOTAL RUN TIME: 0 days 0 hours 17 minutes 37 seconds 735 msec
