                         Program Version 6.0.1  -  RELEASE   -
|  1> ! wB97X-3c OPT FREQ TightSCF
|  2> %pal
|  3>   nprocs 40
|  4> end
|  5> * xyz 0 1
|  6> C     -3.185961     0.082845    -1.011948
|  7> C     -2.463006     0.582492     0.216318
|  8> C     -1.142282     0.859349     0.194137
|  9> C     -0.286362     0.694874    -1.038394
| 10> C      1.146666     1.061043    -0.758506
| 11> C      2.032536     0.263008    -0.128179
| 12> C      1.657360    -1.121190     0.353599
| 13> C      3.427170     0.754387     0.018541
| 14> C      4.464759    -0.038497     0.288363
| 15> C     -3.222437     0.778915     1.502691
| 16> H     -4.264696    -0.082639    -0.810601
| 17> H     -3.101260     0.827364    -1.831120
| 18> H     -2.747958    -0.882027    -1.343080
| 19> H     -0.668955     1.214327     1.107797
| 20> H     -0.345662    -0.344077    -1.427607
| 21> H     -0.671158     1.374397    -1.828641
| 22> H      1.471272     2.032876    -1.114590
| 23> H      2.220692    -1.377060     1.274873
| 24> H      0.584681    -1.200291     0.620075
| 25> H      1.890162    -1.864633    -0.436968
| 26> H      3.628349     1.809182    -0.131349
| 27> H      4.357379    -1.107833     0.407767
| 28> H      5.457053     0.385936     0.369881
| 29> H     -2.787544     0.135697     2.296891
| 30> H     -4.294840     0.515828     1.390910
| 31> H     -3.155958     1.841452     1.819139
| 32> *
| 33>
| 34>                          ****END OF INPUT****
 Total Charge           Charge          ....    0
 Multiplicity           Mult            ....    1
 Number of Electrons    NEL             ....   56
Dispersion correction           -0.027316972
FINAL SINGLE POINT ENERGY       -66.557365926041
Dispersion correction             ... done (  0.1 sec)
Dispersion correction           -0.027457373
FINAL SINGLE POINT ENERGY       -66.563327821464
Dispersion correction             ... done (  0.1 sec)
Dispersion correction           -0.027443874
FINAL SINGLE POINT ENERGY       -66.564307800043
Dispersion correction             ... done (  0.1 sec)
FINAL SINGLE POINT ENERGY       -66.564818511126
FINAL SINGLE POINT ENERGY       -66.565025101566
FINAL SINGLE POINT ENERGY       -66.565223277309
FINAL SINGLE POINT ENERGY       -66.565292514857
FINAL SINGLE POINT ENERGY       -66.565327523646
FINAL SINGLE POINT ENERGY       -66.565455122914
FINAL SINGLE POINT ENERGY       -66.565706527898
FINAL SINGLE POINT ENERGY       -66.570394451217
FINAL SINGLE POINT ENERGY       -66.571425633054
FINAL SINGLE POINT ENERGY       -66.571522701361
FINAL SINGLE POINT ENERGY       -66.571555060886
FINAL SINGLE POINT ENERGY       -66.571612513167
FINAL SINGLE POINT ENERGY       -66.571636244751
FINAL SINGLE POINT ENERGY       -66.571659879573
Dispersion correction             ... done (  0.1 sec)
Dispersion correction           -0.027704290
FINAL SINGLE POINT ENERGY       -66.571669902544
Dispersion correction             ... done (  0.1 sec)
Dispersion correction           -0.027707142
FINAL SINGLE POINT ENERGY       -66.571671190363
Dispersion correction             ... done (  0.1 sec)
                    ***********************HURRAY********************

CARTESIAN COORDINATES (ANGSTROEM)
---------------------------------
  C     -2.679120   -0.514551   -0.590029
  C     -2.226647    0.608611    0.289828
  C     -1.197393    1.410738    0.035800
  C     -0.263478    1.374728   -1.137473
  C      1.175200    1.371915   -0.705906
  C      1.878562    0.312415   -0.303104
  C      1.317414   -1.071060   -0.227849
  C      3.275497    0.507691    0.094903
  C      4.105427   -0.439452    0.515469
  C     -3.043463    0.782859    1.533703
  H     -3.718658   -0.364842   -0.886974
  H     -2.090334   -0.620584   -1.495736
  H     -2.642455   -1.460771   -0.046909
  H     -0.977149    2.186540    0.762856
  H     -0.467653    0.518773   -1.775816
  H     -0.436367    2.259353   -1.754102
  H      1.675459    2.334823   -0.700389
  H      1.386317   -1.452412    0.791128
  H      0.273396   -1.105248   -0.521278
  H      1.879110   -1.751748   -0.868187
  H      3.639669    1.527315    0.028873
  H      3.803697   -1.474760    0.602912
  H      5.124490   -0.202169    0.787857
  H     -2.676881    1.604287    2.145322
  H     -3.026298   -0.126148    2.137541
  H     -4.088341    0.979420    1.287559

 Multiplicity           Mult            ....    1
 Number of Electrons    NEL             ....   56
 Basis Dimension        Dim             ....  210

ORBITAL ENERGIES
----------------

  NO   OCC          E(Eh)            E(eV)
   0   2.0000      -0.975828       -26.5536
   1   2.0000      -0.953604       -25.9489
   2   2.0000      -0.903354       -24.5815
   3   2.0000      -0.860936       -23.4273
   4   2.0000      -0.829332       -22.5673
   5   2.0000      -0.820847       -22.3364
   6   2.0000      -0.773331       -21.0434
   7   2.0000      -0.698625       -19.0106
   8   2.0000      -0.641399       -17.4533
   9   2.0000      -0.639869       -17.4117
  10   2.0000      -0.610412       -16.6102
  11   2.0000      -0.577439       -15.7129
  12   2.0000      -0.561536       -15.2802
  13   2.0000      -0.555270       -15.1097
  14   2.0000      -0.545091       -14.8327
  15   2.0000      -0.529338       -14.4040
  16   2.0000      -0.516745       -14.0614
  17   2.0000      -0.500215       -13.6115
  18   2.0000      -0.494824       -13.4648
  19   2.0000      -0.483791       -13.1646
  20   2.0000      -0.478756       -13.0276
  21   2.0000      -0.471168       -12.8211
  22   2.0000      -0.460247       -12.5239
  23   2.0000      -0.439689       -11.9646
  24   2.0000      -0.434408       -11.8209
  25   2.0000      -0.408647       -11.1198
  26   2.0000      -0.337778        -9.1914
  27   2.0000      -0.314420        -8.5558
  28   0.0000       0.055082         1.4988
  29   0.0000       0.084079         2.2879
  30   0.0000       0.095002         2.5851
  31   0.0000       0.102885         2.7997
  32   0.0000       0.106223         2.8905

MULLIKEN ATOMIC CHARGES
-----------------------
   0 C :   -0.064019
   1 C :   -0.080279
   2 C :   -0.008572
   3 C :   -0.090533
   4 C :   -0.021849
   5 C :   -0.051255
   6 C :   -0.050179
   7 C :   -0.020188
   8 C :   -0.050206
   9 C :   -0.048762
  10 H :    0.041414
  11 H :    0.023191
  12 H :    0.038043
  13 H :    0.015130
  14 H :    0.038808
  15 H :    0.053410
  16 H :    0.017344
  17 H :    0.052261
  18 H :    0.009607
  19 H :    0.051199
  20 H :    0.007010
  21 H :    0.016703
  22 H :    0.026471
  23 H :    0.026051
  24 H :    0.034385
  25 H :    0.034815
Sum of atomic charges:    0.0000000

LOEWDIN ATOMIC CHARGES
----------------------
   0 C :   -0.108463
   1 C :   -0.057975
   2 C :   -0.050579
   3 C :   -0.095361
   4 C :   -0.030029
   5 C :   -0.053442
   6 C :   -0.099664
   7 C :   -0.051352
   8 C :   -0.077037
   9 C :   -0.106954
  10 H :    0.051778
  11 H :    0.040969
  12 H :    0.049068
  13 H :    0.039611
  14 H :    0.043672
  15 H :    0.054110
  16 H :    0.038274
  17 H :    0.053162
  18 H :    0.047868
  19 H :    0.051028
  20 H :    0.048321
  21 H :    0.031783
  22 H :    0.036051
  23 H :    0.049531
  24 H :    0.047910
  25 H :    0.047719

  Mayer bond orders larger than 0.100000
B(  0-C ,  1-C ) :   1.0349 B(  0-C , 10-H ) :   0.9799 B(  0-C , 11-H ) :   0.9889
B(  0-C , 12-H ) :   0.9774 B(  1-C ,  2-C ) :   1.8902 B(  1-C ,  9-C ) :   1.0309
B(  2-C ,  3-C ) :   1.0147 B(  2-C , 13-H ) :   0.9905 B(  3-C ,  4-C ) :   1.0134
B(  3-C , 14-H ) :   0.9855 B(  3-C , 15-H ) :   0.9812 B(  4-C ,  5-C ) :   1.8231
B(  4-C , 16-H ) :   0.9935 B(  5-C ,  6-C ) :   1.0369 B(  5-C ,  7-C ) :   1.1417
B(  6-C , 17-H ) :   0.9728 B(  6-C , 18-H ) :   0.9959 B(  6-C , 19-H ) :   0.9728
B(  7-C ,  8-C ) :   1.8739 B(  7-C , 20-H ) :   0.9975 B(  8-C , 21-H ) :   0.9975
B(  8-C , 22-H ) :   0.9917 B(  9-C , 23-H ) :   0.9922 B(  9-C , 24-H ) :   0.9796
B(  9-C , 25-H ) :   0.9804

Dispersion correction           -0.027706613
FINAL SINGLE POINT ENERGY       -66.571671595607

DIPOLE MOMENT
-------------

Method             : SCF
Type of density    : Electron Density
Multiplicity       :   1
Irrep              :   0
Energy             :   -66.5439649828159929 Eh
Relativity type    :
Basis              : AO
                                X                 Y                 Z
Electronic contribution:      6.407326064       4.438727528      -1.466456657
Nuclear contribution   :     -6.739210815      -4.535904298       1.423403727
                        -----------------------------------------
Total Dipole Moment    :     -0.331884751      -0.097176769      -0.043052930
                        -----------------------------------------
Magnitude (a.u.)       :      0.348488690
Magnitude (Debye)      :      0.885787855

VIBRATIONAL FREQUENCIES
-----------------------

Scaling factor for frequencies =  1.000000000  (already applied!)

     0:       0.00 cm**-1
     1:       0.00 cm**-1
     2:       0.00 cm**-1
     3:       0.00 cm**-1
     4:       0.00 cm**-1
     5:       0.00 cm**-1
     6:      34.29 cm**-1
     7:      43.21 cm**-1
     8:      66.51 cm**-1
     9:     129.49 cm**-1
    10:     136.05 cm**-1
    11:     176.56 cm**-1
    12:     184.89 cm**-1
    13:     218.26 cm**-1
    14:     258.90 cm**-1
    15:     290.86 cm**-1
    16:     330.24 cm**-1
    17:     349.84 cm**-1
    18:     410.36 cm**-1
    19:     445.09 cm**-1
    20:     462.95 cm**-1
    21:     534.42 cm**-1
    22:     548.01 cm**-1
    23:     579.77 cm**-1
    24:     702.09 cm**-1
    25:     783.19 cm**-1
    26:     823.90 cm**-1
    27:     871.21 cm**-1
    28:     920.09 cm**-1
    29:     949.94 cm**-1
    30:     974.25 cm**-1
    31:     985.57 cm**-1
    32:    1004.14 cm**-1
    33:    1033.29 cm**-1
    34:    1045.84 cm**-1
    35:    1066.81 cm**-1
    36:    1081.90 cm**-1
    37:    1085.63 cm**-1
    38:    1125.21 cm**-1
    39:    1128.31 cm**-1
    40:    1157.20 cm**-1
    41:    1211.61 cm**-1
    42:    1275.62 cm**-1
    43:    1300.67 cm**-1
    44:    1347.22 cm**-1
    45:    1359.28 cm**-1
    46:    1409.44 cm**-1
    47:    1416.80 cm**-1
    48:    1450.67 cm**-1
    49:    1458.62 cm**-1
    50:    1467.76 cm**-1
    51:    1476.11 cm**-1
    52:    1501.57 cm**-1
    53:    1509.03 cm**-1
    54:    1513.50 cm**-1
    55:    1517.03 cm**-1
    56:    1522.50 cm**-1
    57:    1526.77 cm**-1
    58:    1537.28 cm**-1
    59:    1733.01 cm**-1
    60:    1786.87 cm**-1
    61:    1806.22 cm**-1
    62:    3093.12 cm**-1
    63:    3097.42 cm**-1
    64:    3107.71 cm**-1
    65:    3108.75 cm**-1
    66:    3165.36 cm**-1
    67:    3169.24 cm**-1
    68:    3182.76 cm**-1
    69:    3185.16 cm**-1
    70:    3203.27 cm**-1
    71:    3208.65 cm**-1
    72:    3212.56 cm**-1
    73:    3216.58 cm**-1
    74:    3226.85 cm**-1
    75:    3228.56 cm**-1
    76:    3234.52 cm**-1
    77:    3314.96 cm**-1

IR SPECTRUM
-----------

 Mode   freq       eps      Int      T**2         TX        TY        TZ
       cm**-1   L/(mol*cm) km/mol    a.u.
----------------------------------------------------------------------------
  6:     34.29   0.000002    0.01  0.000021  (-0.002694  0.002040  0.003130)
  7:     43.21   0.000018    0.09  0.000127  ( 0.007550 -0.002762  0.007904)
  8:     66.51   0.000013    0.07  0.000062  (-0.000135  0.000312 -0.007843)
  9:    129.49   0.000082    0.42  0.000198  (-0.010295  0.009549 -0.001116)
 10:    136.05   0.000012    0.06  0.000027  (-0.002743 -0.000556  0.004367)
 11:    176.56   0.000076    0.38  0.000134  ( 0.002310 -0.003181  0.010872)
 12:    184.89   0.000119    0.60  0.000200  ( 0.008614 -0.011079  0.001814)
 13:    218.26   0.000180    0.91  0.000257  ( 0.015596 -0.002670  0.002541)
 14:    258.90   0.000351    1.77  0.000423  (-0.017617  0.010091  0.003327)
 15:    290.86   0.000152    0.77  0.000163  ( 0.003868 -0.005242  0.010963)
 16:    330.24   0.000279    1.41  0.000264  (-0.001727  0.005603 -0.015154)
 17:    349.84   0.000276    1.40  0.000247  (-0.003195 -0.006389  0.013982)
 18:    410.36   0.000611    3.09  0.000464  ( 0.002849  0.001366  0.021318)
 19:    445.09   0.001135    5.74  0.000796  (-0.020088  0.006746  0.018623)
 20:    462.95   0.000815    4.12  0.000549  (-0.013729  0.016516 -0.009372)
 21:    534.42   0.000485    2.45  0.000283  (-0.012760 -0.008245 -0.007228)
 22:    548.01   0.000082    0.42  0.000047  (-0.001839  0.002420  0.006126)
 23:    579.77   0.000261    1.32  0.000141  ( 0.005217 -0.007190 -0.007850)
 24:    702.09   0.000105    0.53  0.000047  ( 0.003424  0.004032  0.004338)
 25:    783.19   0.000657    3.32  0.000262  (-0.000958  0.013753 -0.008469)
 26:    823.90   0.000367    1.85  0.000139  (-0.002258 -0.006261  0.009728)
 27:    871.21   0.002558   12.93  0.000916  (-0.020383  0.022065  0.003715)
 28:    920.09   0.004515   22.81  0.001531  (-0.013182 -0.003656  0.036661)
 29:    949.94   0.009342   47.21  0.003069  (-0.016167  0.009497  0.052128)
 30:    974.25   0.003176   16.05  0.001017  ( 0.026060 -0.007374  0.016845)
 31:    985.57   0.000070    0.36  0.000022  (-0.001114  0.001101  0.004450)
 32:   1004.14   0.000272    1.38  0.000085  (-0.006402 -0.006204 -0.002273)
 33:   1033.29   0.000824    4.16  0.000249  ( 0.009962 -0.010470  0.006319)
 34:   1045.84   0.003204   16.19  0.000956  ( 0.008337 -0.004604 -0.029416)
 35:   1066.81   0.000903    4.56  0.000264  (-0.010394 -0.006647  0.010581)
 36:   1081.90   0.000058    0.29  0.000017  (-0.000751 -0.001225 -0.003812)
 37:   1085.63   0.000055    0.28  0.000016  (-0.001677  0.002946 -0.002110)
 38:   1125.21   0.001209    6.11  0.000335  ( 0.014735 -0.008244  0.007091)
 39:   1128.31   0.000057    0.29  0.000016  (-0.003132  0.001723 -0.001748)
 40:   1157.20   0.004403   22.25  0.001187  ( 0.034350  0.002698 -0.000225)
 41:   1211.61   0.000278    1.40  0.000072  (-0.003820 -0.001306  0.007434)
 42:   1275.62   0.000589    2.98  0.000144  (-0.008137  0.003026  0.008295)
 43:   1300.67   0.000296    1.50  0.000071  (-0.000822  0.006852 -0.004845)
 44:   1347.22   0.000154    0.78  0.000036  (-0.005232  0.002710  0.001015)
 45:   1359.28   0.000264    1.34  0.000061  ( 0.002916  0.007221 -0.000166)
 46:   1409.44   0.000381    1.92  0.000084  (-0.005979 -0.006940 -0.000626)
 47:   1416.80   0.000816    4.12  0.000180  ( 0.010797  0.005880 -0.005338)
 48:   1450.67   0.001185    5.99  0.000255  (-0.001496  0.002663  0.015672)
 49:   1458.62   0.002314   11.69  0.000495  ( 0.011836  0.014071  0.012527)
 50:   1467.76   0.001960    9.91  0.000417  ( 0.003409 -0.020116 -0.000699)
 51:   1476.11   0.000356    1.80  0.000075  (-0.006251  0.002729 -0.005359)
 52:   1501.57   0.000123    0.62  0.000026  (-0.001195 -0.001725  0.004597)
 53:   1509.03   0.001237    6.25  0.000256  (-0.005906  0.006656  0.013290)
 54:   1513.50   0.002224   11.24  0.000459  ( 0.008374 -0.007557 -0.018202)
 55:   1517.03   0.000868    4.39  0.000178  (-0.009403  0.007671 -0.005589)
 56:   1522.50   0.003093   15.63  0.000634  (-0.016709  0.013637 -0.012996)
 57:   1526.77   0.002231   11.27  0.000456  ( 0.013149  0.016627  0.002581)
 58:   1537.28   0.001378    6.97  0.000280  (-0.006758  0.001939 -0.015178)
 59:   1733.01   0.005654   28.57  0.001018  (-0.023546  0.019134 -0.009875)
 60:   1786.87   0.002984   15.08  0.000521  ( 0.022129 -0.003427  0.004439)
 61:   1806.22   0.000687    3.47  0.000119  ( 0.009973  0.004299  0.000821)
 62:   3093.12   0.005607   28.33  0.000566  ( 0.013111 -0.006274 -0.018825)
 63:   3097.42   0.009314   47.07  0.000938  (-0.024856 -0.017536  0.003605)
 64:   3107.71   0.005915   29.89  0.000594  (-0.004765  0.021141 -0.011148)
 65:   3108.75   0.002889   14.60  0.000290  (-0.005633 -0.002668 -0.015848)
 66:   3165.36   0.001496    7.56  0.000147  (-0.007691  0.007560 -0.005583)
 67:   3169.24   0.002956   14.94  0.000291  (-0.010669  0.010940 -0.007587)
 68:   3182.76   0.001654    8.36  0.000162  (-0.002771  0.003473  0.011936)
 69:   3185.16   0.000155    0.78  0.000015  ( 0.003209  0.002208 -0.000070)
 70:   3203.27   0.000930    4.70  0.000091  (-0.007239  0.003352  0.005195)
 71:   3208.65   0.003533   17.85  0.000344  ( 0.002861  0.014386  0.011335)
 72:   3212.56   0.001180    5.97  0.000115  (-0.007463 -0.007232 -0.002581)
 73:   3216.58   0.004555   23.02  0.000442  (-0.008543 -0.019140  0.001613)
 74:   3226.85   0.003683   18.61  0.000356  (-0.010900  0.003992  0.014882)
 75:   3228.56   0.001894    9.57  0.000183  (-0.010614 -0.007767 -0.003177)
 76:   3234.52   0.001675    8.46  0.000162  ( 0.011319  0.002309  0.005304)
 77:   3314.96   0.000724    3.66  0.000068  ( 0.006007  0.005613  0.000754)

--------------------------
THERMOCHEMISTRY AT 298.15K
--------------------------

Temperature         ...   298.15 K
Pressure            ...     1.00 atm
Total Mass          ...   136.24 AMU
Quasi RRHO          ...     True
Cut-Off Frequency   ...     1.00 cm^-1

Throughout the following assumptions are being made:
  (1) The electronic state is orbitally nondegenerate
  (2) There are no thermally accessible electronically excited states
  (3) Hindered rotations indicated by low frequency modes are not
      treated as such but are treated as vibrations and this may
      cause some error
  (4) All equations used are the standard statistical mechanics
      equations for an ideal gas
  (5) All vibrations are strictly harmonic

freq.      34.29  E(vib)   ...       0.54
freq.      43.21  E(vib)   ...       0.53
freq.      66.51  E(vib)   ...       0.50
freq.     129.49  E(vib)   ...       0.43
freq.     136.05  E(vib)   ...       0.42
freq.     176.56  E(vib)   ...       0.38
freq.     184.89  E(vib)   ...       0.37
freq.     218.26  E(vib)   ...       0.33
freq.     258.90  E(vib)   ...       0.30
freq.     290.86  E(vib)   ...       0.27
freq.     330.24  E(vib)   ...       0.24
freq.     349.84  E(vib)   ...       0.23
freq.     410.36  E(vib)   ...       0.19
freq.     445.09  E(vib)   ...       0.17
freq.     462.95  E(vib)   ...       0.16
freq.     534.42  E(vib)   ...       0.13
freq.     548.01  E(vib)   ...       0.12
freq.     579.77  E(vib)   ...       0.11
freq.     702.09  E(vib)   ...       0.07
freq.     783.19  E(vib)   ...       0.05
freq.     823.90  E(vib)   ...       0.05
freq.     871.21  E(vib)   ...       0.04
freq.     920.09  E(vib)   ...       0.03
freq.     949.94  E(vib)   ...       0.03
freq.     974.25  E(vib)   ...       0.03
freq.     985.57  E(vib)   ...       0.02
freq.    1004.14  E(vib)   ...       0.02
freq.    1033.29  E(vib)   ...       0.02
freq.    1045.84  E(vib)   ...       0.02
freq.    1066.81  E(vib)   ...       0.02
freq.    1081.90  E(vib)   ...       0.02
freq.    1085.63  E(vib)   ...       0.02
freq.    1125.21  E(vib)   ...       0.01
freq.    1128.31  E(vib)   ...       0.01
freq.    1157.20  E(vib)   ...       0.01
freq.    1211.61  E(vib)   ...       0.01
freq.    1275.62  E(vib)   ...       0.01
freq.    1300.67  E(vib)   ...       0.01
freq.    1347.22  E(vib)   ...       0.01
freq.    1359.28  E(vib)   ...       0.01
freq.    1409.44  E(vib)   ...       0.00
freq.    1416.80  E(vib)   ...       0.00
freq.    1450.67  E(vib)   ...       0.00
freq.    1458.62  E(vib)   ...       0.00
freq.    1467.76  E(vib)   ...       0.00
freq.    1476.11  E(vib)   ...       0.00
freq.    1501.57  E(vib)   ...       0.00
freq.    1509.03  E(vib)   ...       0.00
freq.    1513.50  E(vib)   ...       0.00
freq.    1517.03  E(vib)   ...       0.00
freq.    1522.50  E(vib)   ...       0.00
freq.    1526.77  E(vib)   ...       0.00
freq.    1537.28  E(vib)   ...       0.00
freq.    1733.01  E(vib)   ...       0.00
freq.    1786.87  E(vib)   ...       0.00
freq.    1806.22  E(vib)   ...       0.00
freq.    3093.12  E(vib)   ...       0.00
freq.    3097.42  E(vib)   ...       0.00
freq.    3107.71  E(vib)   ...       0.00
freq.    3108.75  E(vib)   ...       0.00
freq.    3165.36  E(vib)   ...       0.00
freq.    3169.24  E(vib)   ...       0.00
freq.    3182.76  E(vib)   ...       0.00
freq.    3185.16  E(vib)   ...       0.00
freq.    3203.27  E(vib)   ...       0.00
freq.    3208.65  E(vib)   ...       0.00
freq.    3212.56  E(vib)   ...       0.00
freq.    3216.58  E(vib)   ...       0.00
freq.    3226.85  E(vib)   ...       0.00
freq.    3228.56  E(vib)   ...       0.00
freq.    3234.52  E(vib)   ...       0.00
freq.    3314.96  E(vib)   ...       0.00

------------
INNER ENERGY
------------

The inner energy is: U= E(el) + E(ZPE) + E(vib) + E(rot) + E(trans)
    E(el)   - is the total energy from the electronic structure calculation
              = E(kin-el) + E(nuc-el) + E(el-el) + E(nuc-nuc)
    E(ZPE)  - the the zero temperature vibrational energy from the frequency calculation
    E(vib)  - the the finite temperature correction to E(ZPE) due to population
              of excited vibrational states
    E(rot)  - is the rotational thermal energy
    E(trans)- is the translational thermal energy

Summary of contributions to the inner energy U:
Electronic energy                ...    -66.57167160 Eh
Zero point energy                ...      0.23697791 Eh     148.71 kcal/mol
Thermal vibrational correction   ...      0.00949415 Eh       5.96 kcal/mol
Thermal rotational correction    ...      0.00141627 Eh       0.89 kcal/mol
Thermal translational correction ...      0.00141627 Eh       0.89 kcal/mol
-----------------------------------------------------------------------
Total thermal energy                    -66.32236699 Eh

Summary of corrections to the electronic energy:
(perhaps to be used in another calculation)
Total thermal correction                  0.01232670 Eh       7.74 kcal/mol
Non-thermal (ZPE) correction              0.23697791 Eh     148.71 kcal/mol
-----------------------------------------------------------------------
Total correction                          0.24930460 Eh     156.44 kcal/mol

--------
ENTHALPY
--------

The enthalpy is H = U + kB*T
                kB is Boltzmann's constant
Total thermal energy              ...    -66.32236699 Eh
Thermal Enthalpy correction       ...      0.00094421 Eh       0.59 kcal/mol
-----------------------------------------------------------------------
Total Enthalpy                    ...    -66.32142278 Eh

Note: Only C1 symmetry has been detected, increase convergence thresholds
      if your molecule has a higher symmetry. Symmetry factor of 1.0 is
      used for the rotational entropy correction.

Note: Rotational entropy computed according to Herzberg
Infrared and Raman Spectra, Chapter V,1, Van Nostrand Reinhold, 1945
Point Group:  C1, Symmetry Number:   1
Rotational constants in cm-1:     0.088025     0.018934     0.018229

Vibrational entropy computed according to the QRRHO of S. Grimme
Chem.Eur.J. 2012 18 9955 using a reference frequency of 100.0 cm-1

-------
ENTROPY
-------

The entropy contributions are T*S = T*(S(el)+S(vib)+S(rot)+S(trans))
     S(el)   - electronic entropy
     S(vib)  - vibrational entropy
     S(rot)  - rotational entropy
     S(trans)- translational entropy
The entropies will be listed as multiplied by the temperature to get
units of energy

                             ****ORCA TERMINATED NORMALLY****
TOTAL RUN TIME: 0 days 0 hours 33 minutes 19 seconds 489 msec
