                         Program Version 6.0.1  -  RELEASE   -
|  1> ! wB97X-3c OPT FREQ TightSCF
|  2> %pal
|  3>   nprocs 40
|  4> end
|  5> * xyz 0 1
|  6> C      0.744404    -1.933800    -1.495146
|  7> C      0.829482    -1.607606    -0.022862
|  8> C      1.956793    -1.103524     0.525914
|  9> C      3.111176    -0.518428    -0.264326
| 10> C      2.798670     0.865642    -0.891635
| 11> C      1.709186     1.608041    -0.140235
| 12> C      0.440939     1.527500    -0.603157
| 13> C     -0.792938     1.707375     0.239329
| 14> C     -1.525765     0.370159     0.340579
| 15> C     -2.585347     0.075838    -0.479713
| 16> C     -3.015290     1.023258    -1.579931
| 17> C     -3.374131    -1.210519    -0.356374
| 18> C     -1.027350    -0.601650     1.414149
| 19> C     -0.360700    -1.888420     0.873048
| 20> C      2.038135     2.195180     1.210333
| 21> H      1.495907    -2.710628    -1.748212
| 22> H      0.933192    -1.036015    -2.113172
| 23> H     -0.259329    -2.322204    -1.765660
| 24> H      2.001663    -0.979312     1.604998
| 25> H      3.444900    -1.230489    -1.048998
| 26> H      3.965048    -0.393473     0.436259
| 27> H      3.723587     1.481913    -0.899373
| 28> H      2.518476     0.730216    -1.958847
| 29> H      0.271658     1.137968    -1.602182
| 30> H     -1.416964     2.503134    -0.212007
| 31> H     -0.563649     2.079500     1.257805
| 32> H     -3.787073     0.567059    -2.234939
| 33> H     -2.150781     1.281533    -2.226450
| 34> H     -3.448865     1.945582    -1.140058
| 35> H     -4.395446    -1.087351    -0.774109
| 36> H     -3.508684    -1.516861     0.699795
| 37> H     -2.874516    -2.015219    -0.932342
| 38> H     -0.291586    -0.090405     2.070579
| 39> H     -1.865361    -0.875985     2.087710
| 40> H     -0.018468    -2.497613     1.738026
| 41> H     -1.104195    -2.518226     0.351311
| 42> H      3.136009     2.209271     1.375688
| 43> H      1.580568     1.588681     2.018891
| 44> H      1.666647     3.239877     1.268177
| 45> *
| 46>
| 47>                          ****END OF INPUT****
 Total Charge           Charge          ....    0
 Multiplicity           Mult            ....    1
 Number of Electrons    NEL             ....   84
Dispersion correction           -0.053061586
FINAL SINGLE POINT ENERGY       -99.874876782320
Dispersion correction             ... done (  0.1 sec)
Dispersion correction           -0.054127086
FINAL SINGLE POINT ENERGY       -99.887026340006
Dispersion correction             ... done (  0.1 sec)
Dispersion correction           -0.054135758
FINAL SINGLE POINT ENERGY       -99.888777975443
Dispersion correction             ... done (  0.1 sec)
FINAL SINGLE POINT ENERGY       -99.889554207867
FINAL SINGLE POINT ENERGY       -99.890011060131
FINAL SINGLE POINT ENERGY       -99.890452582387
FINAL SINGLE POINT ENERGY       -99.891254680100
FINAL SINGLE POINT ENERGY       -99.892024380721
FINAL SINGLE POINT ENERGY       -99.893328186759
FINAL SINGLE POINT ENERGY       -99.894415817244
FINAL SINGLE POINT ENERGY       -99.895115103158
FINAL SINGLE POINT ENERGY       -99.895319442491
FINAL SINGLE POINT ENERGY       -99.895421193789
FINAL SINGLE POINT ENERGY       -99.895448875949
FINAL SINGLE POINT ENERGY       -99.895457724661
FINAL SINGLE POINT ENERGY       -99.895461044592
Dispersion correction             ... done (  0.1 sec)
Dispersion correction           -0.053990436
FINAL SINGLE POINT ENERGY       -99.895464893659
Dispersion correction             ... done (  0.1 sec)
Dispersion correction           -0.053988497
FINAL SINGLE POINT ENERGY       -99.895466793005
Dispersion correction             ... done (  0.1 sec)
                    ***********************HURRAY********************

CARTESIAN COORDINATES (ANGSTROEM)
---------------------------------
  C      0.655286   -1.797128   -1.467722
  C      0.869911   -1.589077   -0.003428
  C      2.000748   -1.139355    0.526734
  C      3.167605   -0.535178   -0.199000
  C      2.835731    0.845881   -0.833973
  C      1.734290    1.542524   -0.088782
  C      0.499418    1.487310   -0.575884
  C     -0.799735    1.722904    0.126382
  C     -1.538691    0.404961    0.263352
  C     -2.584616    0.079668   -0.500692
  C     -3.113515    0.925256   -1.622343
  C     -3.361263   -1.192494   -0.326817
  C     -1.003863   -0.520388    1.339171
  C     -0.326934   -1.823655    0.882381
  C      2.103724    2.090960    1.252075
  H      0.415395   -2.844855   -1.660595
  H      1.526872   -1.537672   -2.063308
  H     -0.193719   -1.209756   -1.819189
  H      2.025311   -1.045100    1.608664
  H      3.537129   -1.196289   -0.983817
  H      3.992156   -0.419783    0.504180
  H      3.746109    1.448283   -0.862825
  H      2.521148    0.698978   -1.866384
  H      0.383200    1.063421   -1.568270
  H     -1.405198    2.451062   -0.408116
  H     -0.640720    2.132475    1.123209
  H     -3.295777    0.301478   -2.499282
  H     -2.444485    1.723775   -1.925405
  H     -4.074143    1.369549   -1.352535
  H     -4.430575   -0.986984   -0.399772
  H     -3.181553   -1.680888    0.626081
  H     -3.126216   -1.905772   -1.120167
  H     -0.274909    0.031096    1.933869
  H     -1.811941   -0.780462    2.027205
  H     -0.018637   -2.363929    1.779390
  H     -1.048665   -2.459904    0.370360
  H      2.898739    2.830946    1.145133
  H      2.491215    1.306986    1.905058
  H      1.271169    2.571154    1.757929

 Multiplicity           Mult            ....    1
 Number of Electrons    NEL             ....   84
 Basis Dimension        Dim             ....  315

ORBITAL ENERGIES
----------------

  NO   OCC          E(Eh)            E(eV)
   0   2.0000      -0.983988       -26.7757
   1   2.0000      -0.958573       -26.0841
   2   2.0000      -0.944954       -25.7135
   3   2.0000      -0.906060       -24.6552
   4   2.0000      -0.867555       -23.6074
   5   2.0000      -0.865540       -23.5525
   6   2.0000      -0.823962       -22.4211
   7   2.0000      -0.817258       -22.2387
   8   2.0000      -0.812285       -22.1034
   9   2.0000      -0.759904       -20.6780
  10   2.0000      -0.748983       -20.3809
  11   2.0000      -0.717910       -19.5353
  12   2.0000      -0.639501       -17.4017
  13   2.0000      -0.628524       -17.1030
  14   2.0000      -0.614796       -16.7295
  15   2.0000      -0.599607       -16.3161
  16   2.0000      -0.579495       -15.7689
  17   2.0000      -0.573338       -15.6013
  18   2.0000      -0.566646       -15.4192
  19   2.0000      -0.553414       -15.0591
  20   2.0000      -0.548927       -14.9371
  21   2.0000      -0.540163       -14.6986
  22   2.0000      -0.529908       -14.4195
  23   2.0000      -0.519151       -14.1268
  24   2.0000      -0.508086       -13.8257
  25   2.0000      -0.499247       -13.5852
  26   2.0000      -0.496760       -13.5175
  27   2.0000      -0.493836       -13.4380
  28   2.0000      -0.491291       -13.3687
  29   2.0000      -0.478923       -13.0322
  30   2.0000      -0.473164       -12.8755
  31   2.0000      -0.471148       -12.8206
  32   2.0000      -0.466979       -12.7072
  33   2.0000      -0.446895       -12.1606
  34   2.0000      -0.443999       -12.0818
  35   2.0000      -0.429054       -11.6751
  36   2.0000      -0.422924       -11.5083
  37   2.0000      -0.421942       -11.4816
  38   2.0000      -0.410134       -11.1603
  39   2.0000      -0.332665        -9.0523
  40   2.0000      -0.329659        -8.9705
  41   2.0000      -0.306963        -8.3529
  42   0.0000       0.075677         2.0593
  43   0.0000       0.084444         2.2978
  44   0.0000       0.092734         2.5234
  45   0.0000       0.097985         2.6663
  46   0.0000       0.102377         2.7858

MULLIKEN ATOMIC CHARGES
-----------------------
   0 C :   -0.032683
   1 C :   -0.059540
   2 C :   -0.020332
   3 C :   -0.074489
   4 C :   -0.030367
   5 C :   -0.061561
   6 C :   -0.007112
   7 C :   -0.037344
   8 C :   -0.077531
   9 C :   -0.062459
  10 C :   -0.053059
  11 C :   -0.048120
  12 C :   -0.044082
  13 C :   -0.027999
  14 C :   -0.038827
  15 H :    0.043353
  16 H :    0.017686
  17 H :    0.030959
  18 H :    0.003019
  19 H :    0.042552
  20 H :    0.033982
  21 H :    0.030745
  22 H :    0.025182
  23 H :   -0.005757
  24 H :    0.037678
  25 H :    0.026983
  26 H :    0.030930
  27 H :    0.023205
  28 H :    0.043593
  29 H :    0.032361
  30 H :    0.025274
  31 H :    0.035099
  32 H :    0.011235
  33 H :    0.042374
  34 H :    0.042063
  35 H :    0.008595
  36 H :    0.039614
  37 H :    0.026355
  38 H :    0.028424
Sum of atomic charges:    0.0000000

LOEWDIN ATOMIC CHARGES
----------------------
   0 C :   -0.105130
   1 C :   -0.037810
   2 C :   -0.056611
   3 C :   -0.084951
   4 C :   -0.072077
   5 C :   -0.048227
   6 C :   -0.042809
   7 C :   -0.084616
   8 C :   -0.032201
   9 C :   -0.052253
  10 C :   -0.109181
  11 C :   -0.108631
  12 C :   -0.073690
  13 C :   -0.072885
  14 C :   -0.105956
  15 H :    0.050763
  16 H :    0.044641
  17 H :    0.044964
  18 H :    0.032299
  19 H :    0.045807
  20 H :    0.044247
  21 H :    0.043711
  22 H :    0.045319
  23 H :    0.036101
  24 H :    0.045493
  25 H :    0.045586
  26 H :    0.049089
  27 H :    0.042176
  28 H :    0.049342
  29 H :    0.049915
  30 H :    0.044875
  31 H :    0.045482
  32 H :    0.046851
  33 H :    0.046407
  34 H :    0.051964
  35 H :    0.042428
  36 H :    0.051500
  37 H :    0.044455
  38 H :    0.043613

  Mayer bond orders larger than 0.100000
B(  0-C ,  1-C ) :   1.0352 B(  0-C , 15-H ) :   0.9763 B(  0-C , 16-H ) :   0.9920
B(  0-C , 17-H ) :   0.9754 B(  1-C ,  2-C ) :   1.9019 B(  1-C , 13-C ) :   1.0156
B(  2-C ,  3-C ) :   1.0236 B(  2-C , 18-H ) :   0.9915 B(  3-C ,  4-C ) :   0.9481
B(  3-C , 19-H ) :   0.9941 B(  3-C , 20-H ) :   0.9979 B(  4-C ,  5-C ) :   1.0310
B(  4-C , 21-H ) :   0.9923 B(  4-C , 22-H ) :   0.9983 B(  5-C ,  6-C ) :   1.8889
B(  5-C , 14-C ) :   1.0292 B(  6-C ,  7-C ) :   1.0089 B(  6-C , 23-H ) :   0.9938
B(  7-C ,  8-C ) :   1.0104 B(  7-C , 24-H ) :   0.9868 B(  7-C , 25-H ) :   0.9862
B(  8-C ,  9-C ) :   1.8933 B(  8-C , 12-C ) :   1.0101 B(  9-C , 10-C ) :   1.0311
B(  9-C , 11-C ) :   1.0258 B( 10-C , 26-H ) :   0.9799 B( 10-C , 27-H ) :   0.9912
B( 10-C , 28-H ) :   0.9771 B( 11-C , 29-H ) :   0.9841 B( 11-C , 30-H ) :   0.9906
B( 11-C , 31-H ) :   0.9764 B( 12-C , 13-C ) :   0.9743 B( 12-C , 32-H ) :   0.9954
B( 12-C , 33-H ) :   0.9886 B( 13-C , 34-H ) :   0.9905 B( 13-C , 35-H ) :   0.9951
B( 14-C , 36-H ) :   0.9793 B( 14-C , 37-H ) :   0.9747 B( 14-C , 38-H ) :   0.9888

Dispersion correction           -0.053988023
FINAL SINGLE POINT ENERGY       -99.895468164799

DIPOLE MOMENT
-------------

Method             : SCF
Type of density    : Electron Density
Multiplicity       :   1
Irrep              :   0
Energy             :   -99.8414801420544791 Eh
Relativity type    :
Basis              : AO
                                X                 Y                 Z
Electronic contribution:      3.133243843       1.402885334       1.976042633
Nuclear contribution   :     -3.274924083      -1.445068870      -1.973234906
                        -----------------------------------------
Total Dipole Moment    :     -0.141680239      -0.042183536       0.002807727
                        -----------------------------------------
Magnitude (a.u.)       :      0.147853388
Magnitude (Debye)      :      0.375813446

VIBRATIONAL FREQUENCIES
-----------------------

Scaling factor for frequencies =  1.000000000  (already applied!)

     0:       0.00 cm**-1
     1:       0.00 cm**-1
     2:       0.00 cm**-1
     3:       0.00 cm**-1
     4:       0.00 cm**-1
     5:       0.00 cm**-1
     6:      51.74 cm**-1
     7:      66.92 cm**-1
     8:     108.17 cm**-1
     9:     113.45 cm**-1
    10:     122.89 cm**-1
    11:     133.72 cm**-1
    12:     146.51 cm**-1
    13:     154.75 cm**-1
    14:     197.79 cm**-1
    15:     212.10 cm**-1
    16:     216.87 cm**-1
    17:     228.04 cm**-1
    18:     258.83 cm**-1
    19:     281.77 cm**-1
    20:     349.62 cm**-1
    21:     373.47 cm**-1
    22:     379.96 cm**-1
    23:     390.53 cm**-1
    24:     400.85 cm**-1
    25:     424.76 cm**-1
    26:     438.62 cm**-1
    27:     445.77 cm**-1
    28:     515.83 cm**-1
    29:     524.15 cm**-1
    30:     544.52 cm**-1
    31:     582.59 cm**-1
    32:     635.46 cm**-1
    33:     658.24 cm**-1
    34:     726.27 cm**-1
    35:     755.92 cm**-1
    36:     812.65 cm**-1
    37:     851.61 cm**-1
    38:     870.63 cm**-1
    39:     906.97 cm**-1
    40:     919.98 cm**-1
    41:     940.54 cm**-1
    42:     959.07 cm**-1
    43:     981.99 cm**-1
    44:     995.50 cm**-1
    45:     998.95 cm**-1
    46:    1002.69 cm**-1
    47:    1012.46 cm**-1
    48:    1027.63 cm**-1
    49:    1052.94 cm**-1
    50:    1075.46 cm**-1
    51:    1080.79 cm**-1
    52:    1084.98 cm**-1
    53:    1120.06 cm**-1
    54:    1122.54 cm**-1
    55:    1131.13 cm**-1
    56:    1167.57 cm**-1
    57:    1183.38 cm**-1
    58:    1206.80 cm**-1
    59:    1228.53 cm**-1
    60:    1249.83 cm**-1
    61:    1260.25 cm**-1
    62:    1270.80 cm**-1
    63:    1280.80 cm**-1
    64:    1289.27 cm**-1
    65:    1314.03 cm**-1
    66:    1348.19 cm**-1
    67:    1363.24 cm**-1
    68:    1385.41 cm**-1
    69:    1398.05 cm**-1
    70:    1413.94 cm**-1
    71:    1421.35 cm**-1
    72:    1423.45 cm**-1
    73:    1446.89 cm**-1
    74:    1448.96 cm**-1
    75:    1459.75 cm**-1
    76:    1466.18 cm**-1
    77:    1502.02 cm**-1
    78:    1504.62 cm**-1
    79:    1508.97 cm**-1
    80:    1511.13 cm**-1
    81:    1513.65 cm**-1
    82:    1515.70 cm**-1
    83:    1517.74 cm**-1
    84:    1524.76 cm**-1
    85:    1527.76 cm**-1
    86:    1528.33 cm**-1
    87:    1530.61 cm**-1
    88:    1540.40 cm**-1
    89:    1548.43 cm**-1
    90:    1791.66 cm**-1
    91:    1802.36 cm**-1
    92:    1805.52 cm**-1
    93:    3089.58 cm**-1
    94:    3093.20 cm**-1
    95:    3093.82 cm**-1
    96:    3094.48 cm**-1
    97:    3097.23 cm**-1
    98:    3102.36 cm**-1
    99:    3109.78 cm**-1
   100:    3117.70 cm**-1
   101:    3133.88 cm**-1
   102:    3149.65 cm**-1
   103:    3156.33 cm**-1
   104:    3158.60 cm**-1
   105:    3160.78 cm**-1
   106:    3166.54 cm**-1
   107:    3167.69 cm**-1
   108:    3169.02 cm**-1
   109:    3173.48 cm**-1
   110:    3184.27 cm**-1
   111:    3193.56 cm**-1
   112:    3205.93 cm**-1
   113:    3213.22 cm**-1
   114:    3220.33 cm**-1
   115:    3221.46 cm**-1
   116:    3229.61 cm**-1

IR SPECTRUM
-----------

 Mode   freq       eps      Int      T**2         TX        TY        TZ
       cm**-1   L/(mol*cm) km/mol    a.u.
----------------------------------------------------------------------------
  6:     51.74   0.000017    0.08  0.000101  (-0.006717  0.007051  0.002509)
  7:     66.92   0.000008    0.04  0.000038  (-0.004418  0.004325 -0.000436)
  8:    108.17   0.000017    0.08  0.000048  (-0.004582  0.004268  0.002927)
  9:    113.45   0.000046    0.23  0.000128  ( 0.010589  0.000151 -0.003954)
 10:    122.89   0.000047    0.24  0.000120  ( 0.004127 -0.010159  0.000120)
 11:    133.72   0.000030    0.15  0.000069  ( 0.000426 -0.008296 -0.000061)
 12:    146.51   0.000012    0.06  0.000026  (-0.004952  0.000715  0.000819)
 13:    154.75   0.000042    0.21  0.000085  ( 0.006360  0.005587 -0.003652)
 14:    197.79   0.000109    0.55  0.000171  ( 0.004321 -0.011587 -0.004281)
 15:    212.10   0.000069    0.35  0.000101  ( 0.004630 -0.008691  0.001954)
 16:    216.87   0.000207    1.04  0.000297  (-0.004637 -0.015804  0.005114)
 17:    228.04   0.000010    0.05  0.000014  ( 0.002174 -0.000869  0.002956)
 18:    258.83   0.000171    0.86  0.000206  ( 0.011404 -0.006640 -0.005658)
 19:    281.77   0.000252    1.27  0.000279  (-0.014634  0.003550  0.007209)
 20:    349.62   0.000004    0.02  0.000004  ( 0.001322  0.001363  0.000230)
 21:    373.47   0.000270    1.36  0.000225  (-0.006146  0.010661  0.008592)
 22:    379.96   0.000142    0.72  0.000116  (-0.003544  0.008680 -0.005336)
 23:    390.53   0.000508    2.57  0.000406  (-0.018919 -0.006043  0.003414)
 24:    400.85   0.000221    1.12  0.000172  (-0.001804  0.008177  0.010106)
 25:    424.76   0.000043    0.22  0.000031  (-0.001568 -0.002846 -0.004564)
 26:    438.62   0.000447    2.26  0.000318  (-0.012128  0.010189  0.008191)
 27:    445.77   0.000143    0.72  0.000100  (-0.005347  0.007902 -0.003012)
 28:    515.83   0.002062   10.42  0.001247  ( 0.001121 -0.035293  0.000759)
 29:    524.15   0.001423    7.19  0.000847  (-0.021850 -0.019152 -0.001717)
 30:    544.52   0.000081    0.41  0.000046  ( 0.001029 -0.006276 -0.002391)
 31:    582.59   0.000168    0.85  0.000090  (-0.004114  0.008450 -0.001336)
 32:    635.46   0.000758    3.83  0.000372  ( 0.018995 -0.001553 -0.003000)
 33:    658.24   0.000402    2.03  0.000191  (-0.002668  0.008145 -0.010825)
 34:    726.27   0.000106    0.53  0.000045  (-0.001984 -0.004763  0.004343)
 35:    755.92   0.000157    0.79  0.000065  (-0.001079 -0.000661  0.007948)
 36:    812.65   0.000476    2.41  0.000183  (-0.008643  0.003851 -0.009660)
 37:    851.61   0.000491    2.48  0.000180  ( 0.007965 -0.010579 -0.002178)
 38:    870.63   0.001642    8.30  0.000588  (-0.013978  0.018497 -0.007135)
 39:    906.97   0.005078   25.66  0.001747  (-0.022942  0.030853 -0.016406)
 40:    919.98   0.000689    3.48  0.000234  ( 0.001005 -0.009226  0.012153)
 41:    940.54   0.000222    1.12  0.000074  ( 0.000844 -0.008382  0.001649)
 42:    959.07   0.001472    7.44  0.000479  ( 0.012439 -0.016599  0.006982)
 43:    981.99   0.000037    0.18  0.000012  ( 0.001230 -0.001508 -0.002797)
 44:    995.50   0.000223    1.13  0.000070  (-0.000742  0.005236 -0.006471)
 45:    998.95   0.000201    1.01  0.000063  ( 0.006313 -0.003924  0.002722)
 46:   1002.69   0.000687    3.47  0.000214  ( 0.010928  0.006492  0.007231)
 47:   1012.46   0.000132    0.67  0.000041  ( 0.000585 -0.004918 -0.004033)
 48:   1027.63   0.000978    4.94  0.000297  ( 0.013704  0.010257 -0.001971)
 49:   1052.94   0.000975    4.92  0.000289  (-0.016945 -0.000290  0.001274)
 50:   1075.46   0.000033    0.17  0.000010  (-0.002405 -0.000247  0.001940)
 51:   1080.79   0.000453    2.29  0.000131  (-0.000576  0.007530 -0.008590)
 52:   1084.98   0.000173    0.87  0.000050  (-0.001850 -0.003147 -0.006035)
 53:   1120.06   0.001584    8.01  0.000441  ( 0.018003  0.002548  0.010529)
 54:   1122.54   0.000047    0.24  0.000013  (-0.002443  0.001942  0.001801)
 55:   1131.13   0.003728   18.84  0.001029  (-0.028818 -0.011746 -0.007760)
 56:   1167.57   0.000049    0.25  0.000013  (-0.003146 -0.001527  0.000891)
 57:   1183.38   0.000764    3.86  0.000201  ( 0.013150  0.005332  0.000164)
 58:   1206.80   0.000340    1.72  0.000088  (-0.006489  0.004757 -0.004828)
 59:   1228.53   0.000710    3.59  0.000180  (-0.008164  0.009762 -0.004283)
 60:   1249.83   0.000006    0.03  0.000001  ( 0.001135  0.000274  0.000346)
 61:   1260.25   0.001502    7.59  0.000372  ( 0.019063 -0.002480 -0.001562)
 62:   1270.80   0.000052    0.26  0.000013  (-0.002708  0.001041  0.002083)
 63:   1280.80   0.000240    1.21  0.000058  ( 0.003761 -0.003956 -0.005353)
 64:   1289.27   0.000284    1.43  0.000069  ( 0.004604  0.004163  0.005495)
 65:   1314.03   0.000275    1.39  0.000065  (-0.003733 -0.004290 -0.005739)
 66:   1348.19   0.000037    0.19  0.000009  ( 0.000799 -0.001158 -0.002568)
 67:   1363.24   0.000065    0.33  0.000015  (-0.000345 -0.003199 -0.002145)
 68:   1385.41   0.000183    0.93  0.000041  ( 0.004069 -0.000696 -0.004919)
 69:   1398.05   0.000052    0.26  0.000012  ( 0.000825 -0.001808 -0.002783)
 70:   1413.94   0.000835    4.22  0.000184  ( 0.010468  0.008602  0.000901)
 71:   1421.35   0.000125    0.63  0.000027  ( 0.005125 -0.000497  0.000940)
 72:   1423.45   0.001266    6.40  0.000278  ( 0.003455  0.001655  0.016215)
 73:   1446.89   0.000863    4.36  0.000186  (-0.004498 -0.012347 -0.003670)
 74:   1448.96   0.002054   10.38  0.000442  ( 0.004713 -0.013309  0.015591)
 75:   1459.75   0.000378    1.91  0.000081  ( 0.008965 -0.000250  0.000544)
 76:   1466.18   0.004616   23.33  0.000982  (-0.007924 -0.015943 -0.025797)
 77:   1502.02   0.000195    0.99  0.000041  ( 0.003661  0.002828  0.004372)
 78:   1504.62   0.001097    5.54  0.000228  (-0.012174  0.008692 -0.001951)
 79:   1508.97   0.001463    7.39  0.000303  (-0.012257 -0.011488  0.004510)
 80:   1511.13   0.000728    3.68  0.000150  ( 0.005520  0.008372 -0.007053)
 81:   1513.65   0.000814    4.11  0.000168  ( 0.004822  0.011728  0.002640)
 82:   1515.70   0.001528    7.72  0.000315  ( 0.016064  0.005027 -0.005585)
 83:   1517.74   0.003760   19.00  0.000773  ( 0.013874 -0.019333 -0.014382)
 84:   1524.76   0.000304    1.54  0.000062  ( 0.007229  0.001803  0.002609)
 85:   1527.76   0.000896    4.53  0.000183  ( 0.001194  0.005000 -0.012515)
 86:   1528.33   0.003124   15.79  0.000638  (-0.013685  0.018283 -0.010784)
 87:   1530.61   0.003305   16.70  0.000674  ( 0.007649 -0.000084 -0.024804)
 88:   1540.40   0.001945    9.83  0.000394  (-0.012238  0.003972  0.015117)
 89:   1548.43   0.001369    6.92  0.000276  ( 0.006809  0.014841  0.003060)
 90:   1791.66   0.000632    3.20  0.000110  (-0.006551  0.002436 -0.007830)
 91:   1802.36   0.001182    5.97  0.000205  (-0.012243  0.000401 -0.007391)
 92:   1805.52   0.000366    1.85  0.000063  (-0.002605  0.001872 -0.007279)
 93:   3089.58   0.004864   24.58  0.000491  (-0.011481 -0.018954 -0.000502)
 94:   3093.20   0.004945   24.99  0.000499  ( 0.003818  0.003640  0.021705)
 95:   3093.82   0.011314   57.18  0.001141  (-0.016726 -0.008689 -0.028035)
 96:   3094.48   0.006383   32.26  0.000644  (-0.024763  0.005515 -0.000244)
 97:   3097.23   0.005618   28.39  0.000566  (-0.012675 -0.005135 -0.019467)
 98:   3102.36   0.005750   29.06  0.000578  ( 0.014065  0.016442 -0.010498)
 99:   3109.78   0.009207   46.53  0.000924  (-0.011763 -0.022372  0.016881)
100:   3117.70   0.014287   72.20  0.001430  ( 0.037006 -0.004414 -0.006413)
101:   3133.88   0.005341   26.99  0.000532  (-0.009922  0.017792  0.010812)
102:   3149.65   0.002110   10.66  0.000209  (-0.010540 -0.009468  0.002888)
103:   3156.33   0.000137    0.69  0.000014  ( 0.002605 -0.002566  0.000383)
104:   3158.60   0.002736   13.83  0.000270  ( 0.014785 -0.005392 -0.004756)
105:   3160.78   0.002332   11.78  0.000230  (-0.006758  0.009143  0.010046)
106:   3166.54   0.002236   11.30  0.000220  ( 0.003698  0.013493 -0.004959)
107:   3167.69   0.001551    7.84  0.000153  ( 0.005087 -0.009988  0.005209)
108:   3169.02   0.004789   24.20  0.000472  ( 0.011939  0.012965  0.012687)
109:   3173.48   0.003545   17.91  0.000349  (-0.012651 -0.007632 -0.011414)
110:   3184.27   0.002420   12.23  0.000237  (-0.013493  0.004875 -0.005599)
111:   3193.56   0.005150   26.03  0.000503  (-0.003674  0.000398 -0.022127)
112:   3205.93   0.004191   21.18  0.000408  (-0.001739 -0.000820 -0.020107)
113:   3213.22   0.002493   12.60  0.000242  ( 0.013893  0.001975 -0.006719)
114:   3220.33   0.002615   13.21  0.000253  (-0.011143  0.008926  0.007039)
115:   3221.46   0.002527   12.77  0.000245  (-0.001436  0.007587 -0.013608)
116:   3229.61   0.002601   13.15  0.000251  (-0.008527 -0.012054  0.005775)

--------------------------
THERMOCHEMISTRY AT 298.15K
--------------------------

Temperature         ...   298.15 K
Pressure            ...     1.00 atm
Total Mass          ...   204.36 AMU
Quasi RRHO          ...     True
Cut-Off Frequency   ...     1.00 cm^-1

Throughout the following assumptions are being made:
  (1) The electronic state is orbitally nondegenerate
  (2) There are no thermally accessible electronically excited states
  (3) Hindered rotations indicated by low frequency modes are not
      treated as such but are treated as vibrations and this may
      cause some error
  (4) All equations used are the standard statistical mechanics
      equations for an ideal gas
  (5) All vibrations are strictly harmonic

freq.      51.74  E(vib)   ...       0.52
freq.      66.92  E(vib)   ...       0.50
freq.     108.17  E(vib)   ...       0.45
freq.     113.45  E(vib)   ...       0.45
freq.     122.89  E(vib)   ...       0.43
freq.     133.72  E(vib)   ...       0.42
freq.     146.51  E(vib)   ...       0.41
freq.     154.75  E(vib)   ...       0.40
freq.     197.79  E(vib)   ...       0.35
freq.     212.10  E(vib)   ...       0.34
freq.     216.87  E(vib)   ...       0.34
freq.     228.04  E(vib)   ...       0.33
freq.     258.83  E(vib)   ...       0.30
freq.     281.77  E(vib)   ...       0.28
freq.     349.62  E(vib)   ...       0.23
freq.     373.47  E(vib)   ...       0.21
freq.     379.96  E(vib)   ...       0.21
freq.     390.53  E(vib)   ...       0.20
freq.     400.85  E(vib)   ...       0.19
freq.     424.76  E(vib)   ...       0.18
freq.     438.62  E(vib)   ...       0.17
freq.     445.77  E(vib)   ...       0.17
freq.     515.83  E(vib)   ...       0.13
freq.     524.15  E(vib)   ...       0.13
freq.     544.52  E(vib)   ...       0.12
freq.     582.59  E(vib)   ...       0.11
freq.     635.46  E(vib)   ...       0.09
freq.     658.24  E(vib)   ...       0.08
freq.     726.27  E(vib)   ...       0.06
freq.     755.92  E(vib)   ...       0.06
freq.     812.65  E(vib)   ...       0.05
freq.     851.61  E(vib)   ...       0.04
freq.     870.63  E(vib)   ...       0.04
freq.     906.97  E(vib)   ...       0.03
freq.     919.98  E(vib)   ...       0.03
freq.     940.54  E(vib)   ...       0.03
freq.     959.07  E(vib)   ...       0.03
freq.     981.99  E(vib)   ...       0.02
freq.     995.50  E(vib)   ...       0.02
freq.     998.95  E(vib)   ...       0.02
freq.    1002.69  E(vib)   ...       0.02
freq.    1012.46  E(vib)   ...       0.02
freq.    1027.63  E(vib)   ...       0.02
freq.    1052.94  E(vib)   ...       0.02
freq.    1075.46  E(vib)   ...       0.02
freq.    1080.79  E(vib)   ...       0.02
freq.    1084.98  E(vib)   ...       0.02
freq.    1120.06  E(vib)   ...       0.01
freq.    1122.54  E(vib)   ...       0.01
freq.    1131.13  E(vib)   ...       0.01
freq.    1167.57  E(vib)   ...       0.01
freq.    1183.38  E(vib)   ...       0.01
freq.    1206.80  E(vib)   ...       0.01
freq.    1228.53  E(vib)   ...       0.01
freq.    1249.83  E(vib)   ...       0.01
freq.    1260.25  E(vib)   ...       0.01
freq.    1270.80  E(vib)   ...       0.01
freq.    1280.80  E(vib)   ...       0.01
freq.    1289.27  E(vib)   ...       0.01
freq.    1314.03  E(vib)   ...       0.01
freq.    1348.19  E(vib)   ...       0.01
freq.    1363.24  E(vib)   ...       0.01
freq.    1385.41  E(vib)   ...       0.00
freq.    1398.05  E(vib)   ...       0.00
freq.    1413.94  E(vib)   ...       0.00
freq.    1421.35  E(vib)   ...       0.00
freq.    1423.45  E(vib)   ...       0.00
freq.    1446.89  E(vib)   ...       0.00
freq.    1448.96  E(vib)   ...       0.00
freq.    1459.75  E(vib)   ...       0.00
freq.    1466.18  E(vib)   ...       0.00
freq.    1502.02  E(vib)   ...       0.00
freq.    1504.62  E(vib)   ...       0.00
freq.    1508.97  E(vib)   ...       0.00
freq.    1511.13  E(vib)   ...       0.00
freq.    1513.65  E(vib)   ...       0.00
freq.    1515.70  E(vib)   ...       0.00
freq.    1517.74  E(vib)   ...       0.00
freq.    1524.76  E(vib)   ...       0.00
freq.    1527.76  E(vib)   ...       0.00
freq.    1528.33  E(vib)   ...       0.00
freq.    1530.61  E(vib)   ...       0.00
freq.    1540.40  E(vib)   ...       0.00
freq.    1548.43  E(vib)   ...       0.00
freq.    1791.66  E(vib)   ...       0.00
freq.    1802.36  E(vib)   ...       0.00
freq.    1805.52  E(vib)   ...       0.00
freq.    3089.58  E(vib)   ...       0.00
freq.    3093.20  E(vib)   ...       0.00
freq.    3093.82  E(vib)   ...       0.00
freq.    3094.48  E(vib)   ...       0.00
freq.    3097.23  E(vib)   ...       0.00
freq.    3102.36  E(vib)   ...       0.00
freq.    3109.78  E(vib)   ...       0.00
freq.    3117.70  E(vib)   ...       0.00
freq.    3133.88  E(vib)   ...       0.00
freq.    3149.65  E(vib)   ...       0.00
freq.    3156.33  E(vib)   ...       0.00
freq.    3158.60  E(vib)   ...       0.00
freq.    3160.78  E(vib)   ...       0.00
freq.    3166.54  E(vib)   ...       0.00
freq.    3167.69  E(vib)   ...       0.00
freq.    3169.02  E(vib)   ...       0.00
freq.    3173.48  E(vib)   ...       0.00
freq.    3184.27  E(vib)   ...       0.00
freq.    3193.56  E(vib)   ...       0.00
freq.    3205.93  E(vib)   ...       0.00
freq.    3213.22  E(vib)   ...       0.00
freq.    3220.33  E(vib)   ...       0.00
freq.    3221.46  E(vib)   ...       0.00
freq.    3229.61  E(vib)   ...       0.00

------------
INNER ENERGY
------------

The inner energy is: U= E(el) + E(ZPE) + E(vib) + E(rot) + E(trans)
    E(el)   - is the total energy from the electronic structure calculation
              = E(kin-el) + E(nuc-el) + E(el-el) + E(nuc-nuc)
    E(ZPE)  - the the zero temperature vibrational energy from the frequency calculation
    E(vib)  - the the finite temperature correction to E(ZPE) due to population
              of excited vibrational states
    E(rot)  - is the rotational thermal energy
    E(trans)- is the translational thermal energy

Summary of contributions to the inner energy U:
Electronic energy                ...    -99.89546816 Eh
Zero point energy                ...      0.36289260 Eh     227.72 kcal/mol
Thermal vibrational correction   ...      0.01358760 Eh       8.53 kcal/mol
Thermal rotational correction    ...      0.00141627 Eh       0.89 kcal/mol
Thermal translational correction ...      0.00141627 Eh       0.89 kcal/mol
-----------------------------------------------------------------------
Total thermal energy                    -99.51615542 Eh

Summary of corrections to the electronic energy:
(perhaps to be used in another calculation)
Total thermal correction                  0.01642014 Eh      10.30 kcal/mol
Non-thermal (ZPE) correction              0.36289260 Eh     227.72 kcal/mol
-----------------------------------------------------------------------
Total correction                          0.37931274 Eh     238.02 kcal/mol

Rotational constants in cm-1:     0.030571     0.015396     0.013007

                             ****ORCA TERMINATED NORMALLY****
TOTAL RUN TIME: 0 days 0 hours 39 minutes 4 seconds 223 msec
