                         Program Version 6.0.1  -  RELEASE   -
|  1> ! wB97X-3c OPT FREQ TightSCF
|  2> %pal
|  3>   nprocs 40
|  4> end
|  5> * xyz 0 1
|  6> C      1.849048     0.192797     1.298681
|  7> C      2.371892     0.333490    -0.139030
|  8> C      3.858429    -0.039228    -0.195053
|  9> C      1.567426    -0.540185    -1.123611
| 10> C      0.144985    -0.070757    -1.247820
| 11> O     -0.105224     0.935316    -1.965031
| 12> C     -0.941138    -0.807845    -0.560950
| 13> C     -2.132542    -0.289896    -0.196746
| 14> C     -3.170331    -1.212888     0.392363
| 15> C     -2.441387     1.156666    -0.337977
| 16> C     -3.681701     1.616318    -0.499527
| 17> H      1.886721    -0.867906     1.627807
| 18> H      2.463784     0.805140     1.992435
| 19> H      0.801829     0.554853     1.368951
| 20> H      2.278639     1.400051    -0.443463
| 21> H      4.443958     0.611033     0.489545
| 22> H      4.251988     0.104793    -1.223934
| 23> H      4.008152    -1.099844     0.101471
| 24> H      1.599733    -1.604273    -0.801141
| 25> H      2.035473    -0.491236    -2.131303
| 26> H     -0.746646    -1.853155    -0.350039
| 27> H     -3.849513    -1.566917    -0.411125
| 28> H     -2.704181    -2.094611     0.882753
| 29> H     -3.765551    -0.683042     1.165898
| 30> H     -1.637689     1.880413    -0.296388
| 31> H     -3.854260     2.681081    -0.588159
| 32> H     -4.531896     0.949831    -0.563159
| 33> *
| 34>
| 35>                          ****END OF INPUT****
 Total Charge           Charge          ....    0
 Multiplicity           Mult            ....    1
 Number of Electrons    NEL             ....   62
Dispersion correction           -0.029252091
FINAL SINGLE POINT ENERGY       -82.639359159483
Dispersion correction             ... done (  0.1 sec)
Dispersion correction           -0.029673228
FINAL SINGLE POINT ENERGY       -82.648350313288
Dispersion correction             ... done (  0.1 sec)
Dispersion correction           -0.029541379
FINAL SINGLE POINT ENERGY       -82.649643964334
Dispersion correction             ... done (  0.1 sec)
FINAL SINGLE POINT ENERGY       -82.650739971800
FINAL SINGLE POINT ENERGY       -82.651469866863
FINAL SINGLE POINT ENERGY       -82.651871172464
FINAL SINGLE POINT ENERGY       -82.652027719523
FINAL SINGLE POINT ENERGY       -82.652070805614
FINAL SINGLE POINT ENERGY       -82.652099117264
FINAL SINGLE POINT ENERGY       -82.652132120630
FINAL SINGLE POINT ENERGY       -82.653000371076
FINAL SINGLE POINT ENERGY       -82.653256569054
FINAL SINGLE POINT ENERGY       -82.653439027891
FINAL SINGLE POINT ENERGY       -82.653471411743
FINAL SINGLE POINT ENERGY       -82.653543703408
FINAL SINGLE POINT ENERGY       -82.653556712603
FINAL SINGLE POINT ENERGY       -82.653566680992
Dispersion correction             ... done (  0.1 sec)
Dispersion correction           -0.029093099
FINAL SINGLE POINT ENERGY       -82.653567624597
Dispersion correction             ... done (  0.1 sec)
Dispersion correction           -0.029093066
FINAL SINGLE POINT ENERGY       -82.653568002586
Dispersion correction             ... done (  0.1 sec)
                    ***********************HURRAY********************

CARTESIAN COORDINATES (ANGSTROEM)
---------------------------------
  C      2.691737    0.815380    1.305463
  C      2.653814    0.295723   -0.122202
  C      3.909603   -0.496807   -0.444736
  C      1.418303   -0.552114   -0.364709
  C      0.111669    0.207371   -0.398445
  O      0.087374    1.418105   -0.429363
  C     -1.088651   -0.656254   -0.424595
  C     -2.380663   -0.292830   -0.420878
  C     -3.434436   -1.355351   -0.448101
  C     -2.819404    1.104424   -0.385840
  C     -4.093497    1.479654   -0.385604
  H      2.748798   -0.012179    2.015773
  H      3.565581    1.446840    1.464663
  H      1.807270    1.405814    1.535051
  H      2.598897    1.154700   -0.793746
  H      4.802898    0.106478   -0.284367
  H      3.915803   -0.832184   -1.482135
  H      3.990336   -1.379970    0.192098
  H      1.340760   -1.345180    0.384899
  H      1.490187   -1.070990   -1.326351
  H     -0.871137   -1.717475   -0.442153
  H     -4.069671   -1.243911   -1.326064
  H     -2.991794   -2.347316   -0.470238
  H     -4.075345   -1.285073    0.429965
  H     -2.039058    1.848621   -0.361542
  H     -4.354956    2.528716   -0.358403
  H     -4.914421    0.775808   -0.412992

 Multiplicity           Mult            ....    1
 Number of Electrons    NEL             ....   62
 Basis Dimension        Dim             ....  223

ORBITAL ENERGIES
----------------

  NO   OCC          E(Eh)            E(eV)
   0   2.0000      -1.166798       -31.7502
   1   2.0000      -0.981274       -26.7018
   2   2.0000      -0.955403       -25.9978
   3   2.0000      -0.900608       -24.5068
   4   2.0000      -0.870002       -23.6740
   5   2.0000      -0.833251       -22.6739
   6   2.0000      -0.815512       -22.1912
   7   2.0000      -0.755740       -20.5647
   8   2.0000      -0.705569       -19.1995
   9   2.0000      -0.669090       -18.2069
  10   2.0000      -0.642088       -17.4721
  11   2.0000      -0.610104       -16.6018
  12   2.0000      -0.591726       -16.1017
  13   2.0000      -0.586309       -15.9543
  14   2.0000      -0.560447       -15.2505
  15   2.0000      -0.549831       -14.9617
  16   2.0000      -0.547709       -14.9039
  17   2.0000      -0.528268       -14.3749
  18   2.0000      -0.522349       -14.2138
  19   2.0000      -0.503647       -13.7049
  20   2.0000      -0.499706       -13.5977
  21   2.0000      -0.491831       -13.3834
  22   2.0000      -0.487717       -13.2715
  23   2.0000      -0.469885       -12.7862
  24   2.0000      -0.461011       -12.5447
  25   2.0000      -0.439928       -11.9710
  26   2.0000      -0.433357       -11.7922
  27   2.0000      -0.427097       -11.6219
  28   2.0000      -0.418877       -11.3982
  29   2.0000      -0.352921        -9.6035
  30   2.0000      -0.341638        -9.2964
  31   0.0000       0.004195         0.1141
  32   0.0000       0.082338         2.2405
  33   0.0000       0.092522         2.5176
  34   0.0000       0.099746         2.7142
  35   0.0000       0.104003         2.8301

MULLIKEN ATOMIC CHARGES
-----------------------
   0 C :   -0.043843
   1 C :   -0.080365
   2 C :   -0.047911
   3 C :   -0.088954
   4 C :    0.149051
   5 O :   -0.314410
   6 C :   -0.013141
   7 C :   -0.073401
   8 C :   -0.055999
   9 C :    0.007508
  10 C :   -0.027204
  11 H :    0.017612
  12 H :    0.027667
  13 H :    0.048755
  14 H :    0.049183
  15 H :    0.030323
  16 H :    0.025011
  17 H :    0.021057
  18 H :    0.051906
  19 H :    0.063548
  20 H :    0.011081
  21 H :    0.055801
  22 H :    0.032053
  23 H :    0.055815
  24 H :    0.043421
  25 H :    0.035235
  26 H :    0.020201
Sum of atomic charges:    0.0000000

LOEWDIN ATOMIC CHARGES
----------------------
   0 C :   -0.105827
   1 C :   -0.079831
   2 C :   -0.110570
   3 C :   -0.077493
   4 C :   -0.011574
   5 O :   -0.127717
   6 C :   -0.059774
   7 C :   -0.005702
   8 C :   -0.098081
   9 C :   -0.035120
  10 C :   -0.045080
  11 H :    0.038972
  12 H :    0.044743
  13 H :    0.046968
  14 H :    0.051001
  15 H :    0.045605
  16 H :    0.042491
  17 H :    0.041465
  18 H :    0.054676
  19 H :    0.061276
  20 H :    0.044069
  21 H :    0.055158
  22 H :    0.052221
  23 H :    0.055121
  24 H :    0.045683
  25 H :    0.042623
  26 H :    0.034697

  Mayer bond orders larger than 0.100000
B(  0-C ,  1-C ) :   0.9910 B(  0-C , 11-H ) :   0.9904 B(  0-C , 12-H ) :   0.9965
B(  0-C , 13-H ) :   0.9935 B(  1-C ,  2-C ) :   1.0054 B(  1-C ,  3-C ) :   0.9758
B(  1-C , 14-H ) :   0.9877 B(  2-C , 15-H ) :   0.9945 B(  2-C , 16-H ) :   0.9953
B(  2-C , 17-H ) :   0.9897 B(  3-C ,  4-C ) :   1.0202 B(  3-C , 18-H ) :   0.9735
B(  3-C , 19-H ) :   0.9714 B(  4-C ,  5-O ) :   1.8810 B(  4-C ,  6-C ) :   1.1033
B(  6-C ,  7-C ) :   1.7505 B(  6-C , 20-H ) :   0.9825 B(  7-C ,  8-C ) :   1.0337
B(  7-C ,  9-C ) :   1.1642 B(  8-C , 21-H ) :   0.9710 B(  8-C , 22-H ) :   0.9915
B(  8-C , 23-H ) :   0.9711 B(  9-C , 10-C ) :   1.8560 B(  9-C , 24-H ) :   0.9814
B( 10-C , 25-H ) :   0.9928 B( 10-C , 26-H ) :   0.9965

Dispersion correction           -0.029093356
FINAL SINGLE POINT ENERGY       -82.653568081168

DIPOLE MOMENT
-------------

Method             : SCF
Type of density    : Electron Density
Multiplicity       :   1
Irrep              :   0
Energy             :   -82.6244747252716252 Eh
Relativity type    :
Basis              : AO
                                X                 Y                 Z
Electronic contribution:     -8.734605908       3.500139405      -2.581157644
Nuclear contribution   :      8.302241498      -4.498940430       2.562912862
                        -----------------------------------------
Total Dipole Moment    :     -0.432364410      -0.998801025      -0.018244782
                        -----------------------------------------
Magnitude (a.u.)       :      1.088519794
Magnitude (Debye)      :      2.766797436

VIBRATIONAL FREQUENCIES
-----------------------

Scaling factor for frequencies =  1.000000000  (already applied!)

     0:       0.00 cm**-1
     1:       0.00 cm**-1
     2:       0.00 cm**-1
     3:       0.00 cm**-1
     4:       0.00 cm**-1
     5:       0.00 cm**-1
     6:      19.89 cm**-1
     7:      43.69 cm**-1
     8:      96.78 cm**-1
     9:     105.75 cm**-1
    10:     117.55 cm**-1
    11:     175.06 cm**-1
    12:     220.44 cm**-1
    13:     224.94 cm**-1
    14:     232.21 cm**-1
    15:     256.84 cm**-1
    16:     267.53 cm**-1
    17:     328.64 cm**-1
    18:     366.26 cm**-1
    19:     387.79 cm**-1
    20:     414.78 cm**-1
    21:     425.44 cm**-1
    22:     445.41 cm**-1
    23:     570.83 cm**-1
    24:     579.27 cm**-1
    25:     737.31 cm**-1
    26:     762.42 cm**-1
    27:     815.76 cm**-1
    28:     868.54 cm**-1
    29:     882.82 cm**-1
    30:     929.95 cm**-1
    31:     951.80 cm**-1
    32:     959.14 cm**-1
    33:     986.49 cm**-1
    34:     999.79 cm**-1
    35:    1005.16 cm**-1
    36:    1026.22 cm**-1
    37:    1076.92 cm**-1
    38:    1088.37 cm**-1
    39:    1095.13 cm**-1
    40:    1134.53 cm**-1
    41:    1150.06 cm**-1
    42:    1204.35 cm**-1
    43:    1231.80 cm**-1
    44:    1285.81 cm**-1
    45:    1293.09 cm**-1
    46:    1348.08 cm**-1
    47:    1353.80 cm**-1
    48:    1397.88 cm**-1
    49:    1424.38 cm**-1
    50:    1440.27 cm**-1
    51:    1449.99 cm**-1
    52:    1451.93 cm**-1
    53:    1453.02 cm**-1
    54:    1481.25 cm**-1
    55:    1486.09 cm**-1
    56:    1512.40 cm**-1
    57:    1517.41 cm**-1
    58:    1523.89 cm**-1
    59:    1530.66 cm**-1
    60:    1535.33 cm**-1
    61:    1543.47 cm**-1
    62:    1701.98 cm**-1
    63:    1761.79 cm**-1
    64:    1833.79 cm**-1
    65:    3080.67 cm**-1
    66:    3090.30 cm**-1
    67:    3095.74 cm**-1
    68:    3112.29 cm**-1
    69:    3119.52 cm**-1
    70:    3134.02 cm**-1
    71:    3176.02 cm**-1
    72:    3180.76 cm**-1
    73:    3187.85 cm**-1
    74:    3197.85 cm**-1
    75:    3208.96 cm**-1
    76:    3219.51 cm**-1
    77:    3221.22 cm**-1
    78:    3230.02 cm**-1
    79:    3296.20 cm**-1
    80:    3318.43 cm**-1

IR SPECTRUM
-----------

 Mode   freq       eps      Int      T**2         TX        TY        TZ
       cm**-1   L/(mol*cm) km/mol    a.u.
----------------------------------------------------------------------------
  6:     19.89   0.000262    1.32  0.004109  ( 0.003605 -0.001084  0.063990)
  7:     43.69   0.000037    0.19  0.000267  (-0.000259  0.004750  0.015632)
  8:     96.78   0.000174    0.88  0.000560  (-0.004351  0.010049  0.020984)
  9:    105.75   0.000047    0.24  0.000140  ( 0.004056 -0.001819 -0.010947)
 10:    117.55   0.000488    2.46  0.001294  (-0.003029  0.011819 -0.033846)
 11:    175.06   0.000018    0.09  0.000032  (-0.001913  0.002571 -0.004669)
 12:    220.44   0.000664    3.36  0.000940  ( 0.029185 -0.008741  0.003497)
 13:    224.94   0.000085    0.43  0.000118  ( 0.001610  0.001103  0.010705)
 14:    232.21   0.000002    0.01  0.000003  ( 0.001175  0.001134  0.000679)
 15:    256.84   0.000383    1.94  0.000466  ( 0.019341  0.009551  0.000790)
 16:    267.53   0.000434    2.19  0.000506  ( 0.022318 -0.002818  0.000498)
 17:    328.64   0.000053    0.27  0.000050  ( 0.000426  0.007011  0.000736)
 18:    366.26   0.000734    3.71  0.000626  (-0.023162  0.006043 -0.007260)
 19:    387.79   0.000425    2.15  0.000342  ( 0.016134  0.008741  0.002304)
 20:    414.78   0.000795    4.02  0.000598  (-0.021614 -0.003062 -0.011034)
 21:    425.44   0.001692    8.55  0.001241  ( 0.009773  0.001992 -0.033793)
 22:    445.41   0.000125    0.63  0.000088  (-0.000185  0.001375  0.009259)
 23:    570.83   0.000157    0.80  0.000086  ( 0.008750 -0.002978 -0.000804)
 24:    579.27   0.000028    0.14  0.000015  ( 0.003283 -0.001504  0.001449)
 25:    737.31   0.000615    3.11  0.000260  ( 0.005612  0.000868 -0.015100)
 26:    762.42   0.004617   23.33  0.001890  ( 0.043218 -0.001769  0.004343)
 27:    815.76   0.000365    1.84  0.000140  ( 0.011303 -0.002775 -0.002022)
 28:    868.54   0.000130    0.66  0.000047  (-0.002006  0.003777  0.005324)
 29:    882.82   0.001244    6.29  0.000440  (-0.012408 -0.009076  0.014263)
 30:    929.95   0.003014   15.23  0.001011  ( 0.018594  0.004639  0.025378)
 31:    951.80   0.002193   11.08  0.000719  (-0.025932  0.004634  0.005013)
 32:    959.14   0.000454    2.29  0.000148  ( 0.011634  0.001109 -0.003337)
 33:    986.49   0.009281   46.90  0.002936  ( 0.000317  0.001576 -0.054161)
 34:    999.79   0.000415    2.10  0.000129  (-0.009625 -0.003582 -0.004893)
 35:   1005.16   0.002376   12.01  0.000738  ( 0.026855  0.003988 -0.000703)
 36:   1026.22   0.000137    0.69  0.000042  ( 0.004357  0.004695  0.000750)
 37:   1076.92   0.003710   18.75  0.001075  (-0.000509 -0.001029  0.032770)
 38:   1088.37   0.000291    1.47  0.000083  (-0.001649  0.000394  0.008979)
 39:   1095.13   0.014310   72.32  0.004078  (-0.063182  0.008552 -0.003544)
 40:   1134.53   0.015007   75.84  0.004128  (-0.064141  0.000217 -0.003679)
 41:   1150.06   0.002156   10.90  0.000585  (-0.021867  0.003380  0.009770)
 42:   1204.35   0.006778   34.25  0.001756  (-0.041657  0.001717 -0.004234)
 43:   1231.80   0.001241    6.27  0.000314  (-0.016988 -0.001856 -0.004722)
 44:   1285.81   0.000543    2.74  0.000132  ( 0.011390  0.000854  0.001119)
 45:   1293.09   0.002976   15.04  0.000718  (-0.026574  0.003080 -0.001574)
 46:   1348.08   0.000323    1.63  0.000075  (-0.000154 -0.008640  0.000435)
 47:   1353.80   0.006188   31.27  0.001426  ( 0.037529 -0.004126  0.000994)
 48:   1397.88   0.000404    2.04  0.000090  (-0.009365  0.001501 -0.000581)
 49:   1424.38   0.000529    2.67  0.000116  ( 0.004757  0.009569  0.001325)
 50:   1440.27   0.002751   13.90  0.000596  (-0.004414  0.014776  0.018929)
 51:   1449.99   0.009100   45.99  0.001959  (-0.040436  0.017494  0.004176)
 52:   1451.93   0.002046   10.34  0.000440  (-0.014960 -0.014692  0.000329)
 53:   1453.02   0.004462   22.55  0.000958  ( 0.027708 -0.004629  0.013009)
 54:   1481.25   0.002842   14.36  0.000599  (-0.002495  0.024198 -0.002658)
 55:   1486.09   0.001979   10.00  0.000416  ( 0.007120 -0.019064 -0.001244)
 56:   1512.40   0.002095   10.59  0.000432  (-0.000370 -0.000602  0.020779)
 57:   1517.41   0.000615    3.11  0.000127  (-0.000161  0.011207 -0.000943)
 58:   1523.89   0.000883    4.46  0.000181  ( 0.003957 -0.007262 -0.010602)
 59:   1530.66   0.004085   20.65  0.000833  ( 0.027974 -0.007054  0.000797)
 60:   1535.33   0.000851    4.30  0.000173  (-0.000992  0.006914 -0.011145)
 61:   1543.47   0.003575   18.07  0.000723  (-0.007153 -0.024723  0.007771)
 62:   1701.98   0.052325  264.43  0.009594  (-0.097229 -0.011713 -0.001812)
 63:   1761.79   0.021023  106.24  0.003724  (-0.059475 -0.013620 -0.000990)
 64:   1833.79   0.024407  123.34  0.004153  (-0.004337 -0.064256  0.002398)
 65:   3080.67   0.005437   27.48  0.000551  (-0.019521 -0.011200 -0.006649)
 66:   3090.30   0.006829   34.51  0.000690  ( 0.016369 -0.015311 -0.013682)
 67:   3095.74   0.005676   28.68  0.000572  ( 0.014274 -0.003447  0.018882)
 68:   3112.29   0.003244   16.39  0.000325  ( 0.014711  0.010425  0.000359)
 69:   3119.52   0.000131    0.66  0.000013  ( 0.000625  0.002917 -0.002059)
 70:   3134.02   0.002372   11.99  0.000236  ( 0.000842 -0.006000  0.014122)
 71:   3176.02   0.001642    8.30  0.000161  (-0.000211  0.000478  0.012693)
 72:   3180.76   0.007665   38.74  0.000752  (-0.009954 -0.020335  0.015473)
 73:   3187.85   0.004917   24.85  0.000481  (-0.014074 -0.013316 -0.010292)
 74:   3197.85   0.000749    3.78  0.000073  ( 0.000065  0.000320 -0.008541)
 75:   3208.96   0.002111   10.67  0.000205  (-0.013737  0.004035  0.000511)
 76:   3219.51   0.000458    2.32  0.000044  (-0.002086  0.006325  0.000227)
 77:   3221.22   0.001215    6.14  0.000118  (-0.009773  0.004715 -0.000062)
 78:   3230.02   0.002018   10.20  0.000195  (-0.001487  0.013879  0.000418)
 79:   3296.20   0.003064   15.49  0.000290  (-0.017009 -0.000893 -0.000057)
 80:   3318.43   0.000353    1.79  0.000033  (-0.003193  0.004796  0.000169)

--------------------------
THERMOCHEMISTRY AT 298.15K
--------------------------

Temperature         ...   298.15 K
Pressure            ...     1.00 atm
Total Mass          ...   152.24 AMU
Quasi RRHO          ...     True
Cut-Off Frequency   ...     1.00 cm^-1

Throughout the following assumptions are being made:
  (1) The electronic state is orbitally nondegenerate
  (2) There are no thermally accessible electronically excited states
  (3) Hindered rotations indicated by low frequency modes are not
      treated as such but are treated as vibrations and this may
      cause some error
  (4) All equations used are the standard statistical mechanics
      equations for an ideal gas
  (5) All vibrations are strictly harmonic

freq.      19.89  E(vib)   ...       0.56
freq.      43.69  E(vib)   ...       0.53
freq.      96.78  E(vib)   ...       0.46
freq.     105.75  E(vib)   ...       0.45
freq.     117.55  E(vib)   ...       0.44
freq.     175.06  E(vib)   ...       0.38
freq.     220.44  E(vib)   ...       0.33
freq.     224.94  E(vib)   ...       0.33
freq.     232.21  E(vib)   ...       0.32
freq.     256.84  E(vib)   ...       0.30
freq.     267.53  E(vib)   ...       0.29
freq.     328.64  E(vib)   ...       0.24
freq.     366.26  E(vib)   ...       0.22
freq.     387.79  E(vib)   ...       0.20
freq.     414.78  E(vib)   ...       0.19
freq.     425.44  E(vib)   ...       0.18
freq.     445.41  E(vib)   ...       0.17
freq.     570.83  E(vib)   ...       0.11
freq.     579.27  E(vib)   ...       0.11
freq.     737.31  E(vib)   ...       0.06
freq.     762.42  E(vib)   ...       0.06
freq.     815.76  E(vib)   ...       0.05
freq.     868.54  E(vib)   ...       0.04
freq.     882.82  E(vib)   ...       0.04
freq.     929.95  E(vib)   ...       0.03
freq.     951.80  E(vib)   ...       0.03
freq.     959.14  E(vib)   ...       0.03
freq.     986.49  E(vib)   ...       0.02
freq.     999.79  E(vib)   ...       0.02
freq.    1005.16  E(vib)   ...       0.02
freq.    1026.22  E(vib)   ...       0.02
freq.    1076.92  E(vib)   ...       0.02
freq.    1088.37  E(vib)   ...       0.02
freq.    1095.13  E(vib)   ...       0.02
freq.    1134.53  E(vib)   ...       0.01
freq.    1150.06  E(vib)   ...       0.01
freq.    1204.35  E(vib)   ...       0.01
freq.    1231.80  E(vib)   ...       0.01
freq.    1285.81  E(vib)   ...       0.01
freq.    1293.09  E(vib)   ...       0.01
freq.    1348.08  E(vib)   ...       0.01
freq.    1353.80  E(vib)   ...       0.01
freq.    1397.88  E(vib)   ...       0.00
freq.    1424.38  E(vib)   ...       0.00
freq.    1440.27  E(vib)   ...       0.00
freq.    1449.99  E(vib)   ...       0.00
freq.    1451.93  E(vib)   ...       0.00
freq.    1453.02  E(vib)   ...       0.00
freq.    1481.25  E(vib)   ...       0.00
freq.    1486.09  E(vib)   ...       0.00
freq.    1512.40  E(vib)   ...       0.00
freq.    1517.41  E(vib)   ...       0.00
freq.    1523.89  E(vib)   ...       0.00
freq.    1530.66  E(vib)   ...       0.00
freq.    1535.33  E(vib)   ...       0.00
freq.    1543.47  E(vib)   ...       0.00
freq.    1701.98  E(vib)   ...       0.00
freq.    1761.79  E(vib)   ...       0.00
freq.    1833.79  E(vib)   ...       0.00
freq.    3080.67  E(vib)   ...       0.00
freq.    3090.30  E(vib)   ...       0.00
freq.    3095.74  E(vib)   ...       0.00
freq.    3112.29  E(vib)   ...       0.00
freq.    3119.52  E(vib)   ...       0.00
freq.    3134.02  E(vib)   ...       0.00
freq.    3176.02  E(vib)   ...       0.00
freq.    3180.76  E(vib)   ...       0.00
freq.    3187.85  E(vib)   ...       0.00
freq.    3197.85  E(vib)   ...       0.00
freq.    3208.96  E(vib)   ...       0.00
freq.    3219.51  E(vib)   ...       0.00
freq.    3221.22  E(vib)   ...       0.00
freq.    3230.02  E(vib)   ...       0.00
freq.    3296.20  E(vib)   ...       0.00
freq.    3318.43  E(vib)   ...       0.00

------------
INNER ENERGY
------------

The inner energy is: U= E(el) + E(ZPE) + E(vib) + E(rot) + E(trans)
    E(el)   - is the total energy from the electronic structure calculation
              = E(kin-el) + E(nuc-el) + E(el-el) + E(nuc-nuc)
    E(ZPE)  - the the zero temperature vibrational energy from the frequency calculation
    E(vib)  - the the finite temperature correction to E(ZPE) due to population
              of excited vibrational states
    E(rot)  - is the rotational thermal energy
    E(trans)- is the translational thermal energy

Summary of contributions to the inner energy U:
Electronic energy                ...    -82.65356808 Eh
Zero point energy                ...      0.24235451 Eh     152.08 kcal/mol
Thermal vibrational correction   ...      0.01020180 Eh       6.40 kcal/mol
Thermal rotational correction    ...      0.00141627 Eh       0.89 kcal/mol
Thermal translational correction ...      0.00141627 Eh       0.89 kcal/mol
-----------------------------------------------------------------------
Total thermal energy                    -82.39817922 Eh

Summary of corrections to the electronic energy:
(perhaps to be used in another calculation)
Total thermal correction                  0.01303435 Eh       8.18 kcal/mol
Non-thermal (ZPE) correction              0.24235451 Eh     152.08 kcal/mol
-----------------------------------------------------------------------
Total correction                          0.25538886 Eh     160.26 kcal/mol

--------
ENTHALPY
--------

The enthalpy is H = U + kB*T
                kB is Boltzmann's constant
Total thermal energy              ...    -82.39817922 Eh
Thermal Enthalpy correction       ...      0.00094421 Eh       0.59 kcal/mol
-----------------------------------------------------------------------
Total Enthalpy                    ...    -82.39723502 Eh

Note: Only C1 symmetry has been detected, increase convergence thresholds
      if your molecule has a higher symmetry. Symmetry factor of 1.0 is
      used for the rotational entropy correction.

Note: Rotational entropy computed according to Herzberg
Infrared and Raman Spectra, Chapter V,1, Van Nostrand Reinhold, 1945
Point Group:  C1, Symmetry Number:   1
Rotational constants in cm-1:     0.090057     0.015063     0.013695

Vibrational entropy computed according to the QRRHO of S. Grimme
Chem.Eur.J. 2012 18 9955 using a reference frequency of 100.0 cm-1

-------
ENTROPY
-------

The entropy contributions are T*S = T*(S(el)+S(vib)+S(rot)+S(trans))
     S(el)   - electronic entropy
     S(vib)  - vibrational entropy
     S(rot)  - rotational entropy
     S(trans)- translational entropy

                             ****ORCA TERMINATED NORMALLY****
TOTAL RUN TIME: 0 days 0 hours 29 minutes 48 seconds 863 msec
