                         Program Version 6.0.1  -  RELEASE   -
|  1> ! wB97X-3c OPT FREQ TightSCF
|  2> %pal
|  3>   nprocs 40
|  4> end
|  5> * xyz 0 1
|  6> C      1.926100     1.205143     0.794049
|  7> C      1.210328     0.142306    -0.068216
|  8> C      0.096922     0.720815    -1.013791
|  9> C     -0.850943     1.674928    -0.242883
| 10> C     -1.605993     0.721675     0.710981
| 11> C     -1.070374    -0.662633     0.296402
| 12> C     -0.844685    -0.469511    -1.189493
| 13> C      0.353218    -0.760698     0.771177
| 14> O      0.738954    -1.410159     1.732077
| 15> C     -1.965642    -1.848597     0.660253
| 16> C      2.264953    -0.662389    -0.857139
| 17> H      2.798021     0.759762     1.319646
| 18> H      1.261370     1.615518     1.582780
| 19> H      2.289914     2.035726     0.152459
| 20> H      0.476236     1.147890    -1.967145
| 21> H     -1.566137     2.146039    -0.953734
| 22> H     -0.328731     2.493279     0.291532
| 23> H     -1.381484     0.947759     1.777002
| 24> H     -2.703129     0.795226     0.541099
| 25> H     -0.378817    -1.350813    -1.681508
| 26> H     -1.778084    -0.211716    -1.744082
| 27> H     -1.512379    -2.796792     0.300220
| 28> H     -2.090807    -1.904855     1.762296
| 29> H     -2.966139    -1.731588     0.192306
| 30> H      1.815045    -1.483038    -1.450608
| 31> H      3.000541    -1.122653    -0.162837
| 32> H      2.811741     0.009378    -1.552843
| 33> *
| 34>
| 35>                          ****END OF INPUT****
 Total Charge           Charge          ....    0
 Multiplicity           Mult            ....    1
 Number of Electrons    NEL             ....   62
Dispersion correction           -0.035551762
FINAL SINGLE POINT ENERGY       -82.694628579067
Dispersion correction             ... done (  0.1 sec)
Dispersion correction           -0.035892048
FINAL SINGLE POINT ENERGY       -82.703906893130
Dispersion correction             ... done (  0.1 sec)
Dispersion correction           -0.035948722
FINAL SINGLE POINT ENERGY       -82.704726544277
Dispersion correction             ... done (  0.1 sec)
FINAL SINGLE POINT ENERGY       -82.704969014130
FINAL SINGLE POINT ENERGY       -82.705098823813
Dispersion correction             ... done (  0.1 sec)
Dispersion correction           -0.035906439
FINAL SINGLE POINT ENERGY       -82.705114368456
Dispersion correction             ... done (  0.1 sec)
Dispersion correction           -0.035908561
FINAL SINGLE POINT ENERGY       -82.705119715822
Dispersion correction             ... done (  0.1 sec)
                    ***********************HURRAY********************

CARTESIAN COORDINATES (ANGSTROEM)
---------------------------------
  C      1.905478    1.197817    0.782221
  C      1.183153    0.179175   -0.086388
  C      0.095536    0.741611   -1.027031
  C     -0.846365    1.670474   -0.258468
  C     -1.576215    0.704393    0.696298
  C     -1.083373   -0.698805    0.269282
  C     -0.821389   -0.469241   -1.222052
  C      0.342153   -0.760456    0.779319
  O      0.749300   -1.415959    1.700918
  C     -1.953066   -1.847932    0.696196
  C      2.224247   -0.631371   -0.853731
  H      2.661321    0.695437    1.383170
  H      1.237606    1.713016    1.468642
  H      2.401146    1.944604    0.161301
  H      0.506907    1.179996   -1.935447
  H     -1.548981    2.133215   -0.950924
  H     -0.333610    2.478506    0.256588
  H     -1.368977    0.901378    1.748205
  H     -2.657776    0.753315    0.570187
  H     -0.351908   -1.321557   -1.710462
  H     -1.733914   -0.222075   -1.765430
  H     -1.544046   -2.796987    0.352629
  H     -2.017967   -1.895904    1.782094
  H     -2.960071   -1.740678    0.294125
  H      1.778542   -1.354131   -1.533552
  H      2.859213   -1.176039   -0.156995
  H      2.853053    0.038199   -1.440695

 Multiplicity           Mult            ....    1
 Number of Electrons    NEL             ....   62
 Basis Dimension        Dim             ....  223

ORBITAL ENERGIES
----------------

  NO   OCC          E(Eh)            E(eV)
   0   2.0000      -1.169707       -31.8293
   1   2.0000      -1.037865       -28.2417
   2   2.0000      -0.943552       -25.6753
   3   2.0000      -0.891766       -24.2662
   4   2.0000      -0.861180       -23.4339
   5   2.0000      -0.823618       -22.4118
   6   2.0000      -0.807280       -21.9672
   7   2.0000      -0.778534       -21.1850
   8   2.0000      -0.709639       -19.3103
   9   2.0000      -0.684364       -18.6225
  10   2.0000      -0.629086       -17.1183
  11   2.0000      -0.608772       -16.5655
  12   2.0000      -0.602264       -16.3884
  13   2.0000      -0.577248       -15.7077
  14   2.0000      -0.562642       -15.3103
  15   2.0000      -0.549048       -14.9403
  16   2.0000      -0.534057       -14.5324
  17   2.0000      -0.519593       -14.1388
  18   2.0000      -0.513260       -13.9665
  19   2.0000      -0.500498       -13.6192
  20   2.0000      -0.494047       -13.4437
  21   2.0000      -0.485330       -13.2065
  22   2.0000      -0.475430       -12.9371
  23   2.0000      -0.465917       -12.6782
  24   2.0000      -0.460590       -12.5333
  25   2.0000      -0.459111       -12.4931
  26   2.0000      -0.443783       -12.0759
  27   2.0000      -0.429803       -11.6955
  28   2.0000      -0.416599       -11.3362
  29   2.0000      -0.411299       -11.1920
  30   2.0000      -0.338851        -9.2206
  31   0.0000       0.073325         1.9953
  32   0.0000       0.083451         2.2708
  33   0.0000       0.095119         2.5883
  34   0.0000       0.097490         2.6528
  35   0.0000       0.108960         2.9650

MULLIKEN ATOMIC CHARGES
-----------------------
   0 C :    0.003419
   1 C :   -0.251955
   2 C :   -0.020521
   3 C :   -0.030491
   4 C :   -0.016895
   5 C :   -0.224049
   6 C :    0.012960
   7 C :    0.275897
   8 O :   -0.298330
   9 C :   -0.001816
  10 C :   -0.000408
  11 H :    0.046227
  12 H :    0.020608
  13 H :    0.031286
  14 H :    0.037658
  15 H :    0.036902
  16 H :    0.031095
  17 H :    0.043593
  18 H :    0.038251
  19 H :    0.029092
  20 H :    0.033700
  21 H :    0.035744
  22 H :    0.042251
  23 H :    0.028010
  24 H :    0.019594
  25 H :    0.048274
  26 H :    0.029904
Sum of atomic charges:   -0.0000000

LOEWDIN ATOMIC CHARGES
----------------------
   0 C :   -0.094552
   1 C :   -0.072898
   2 C :   -0.043327
   3 C :   -0.064613
   4 C :   -0.047661
   5 C :   -0.076794
   6 C :   -0.053311
   7 C :    0.026784
   8 O :   -0.116807
   9 C :   -0.099587
  10 C :   -0.091479
  11 H :    0.054261
  12 H :    0.042410
  13 H :    0.046618
  14 H :    0.040670
  15 H :    0.043782
  16 H :    0.037793
  17 H :    0.043568
  18 H :    0.046216
  19 H :    0.039991
  20 H :    0.047961
  21 H :    0.050326
  22 H :    0.053662
  23 H :    0.045314
  24 H :    0.041621
  25 H :    0.053048
  26 H :    0.047003

  Mayer bond orders larger than 0.100000
B(  0-C ,  1-C ) :   1.0101 B(  0-C , 11-H ) :   0.9848 B(  0-C , 12-H ) :   0.9897
B(  0-C , 13-H ) :   0.9883 B(  1-C ,  2-C ) :   0.9684 B(  1-C ,  7-C ) :   0.9906
B(  1-C , 10-C ) :   1.0052 B(  2-C ,  3-C ) :   0.9962 B(  2-C ,  6-C ) :   0.9857
B(  2-C , 14-H ) :   0.9990 B(  3-C ,  4-C ) :   0.9788 B(  3-C , 15-H ) :   0.9995
B(  3-C , 16-H ) :   1.0010 B(  4-C ,  5-C ) :   0.9659 B(  4-C , 17-H ) :   0.9966
B(  4-C , 18-H ) :   0.9958 B(  5-C ,  6-C ) :   0.9662 B(  5-C ,  7-C ) :   0.9998
B(  5-C ,  9-C ) :   1.0462 B(  6-C , 19-H ) :   1.0010 B(  6-C , 20-H ) :   0.9951
B(  7-C ,  8-O ) :   1.9706 B(  9-C , 21-H ) :   0.9821 B(  9-C , 22-H ) :   0.9779
B(  9-C , 23-H ) :   0.9855 B( 10-C , 24-H ) :   0.9907 B( 10-C , 25-H ) :   0.9855
B( 10-C , 26-H ) :   0.9901

Dispersion correction           -0.035908813
FINAL SINGLE POINT ENERGY       -82.705120265008

DIPOLE MOMENT
-------------

Method             : SCF
Type of density    : Electron Density
Multiplicity       :   1
Irrep              :   0
Energy             :   -82.6692114524995958 Eh
Relativity type    :
Basis              : AO
                                X                 Y                 Z
Electronic contribution:     -0.322276444      -2.009217832       2.006620312
Nuclear contribution   :     -0.082042124       2.717585843      -2.924581752
                        -----------------------------------------
Total Dipole Moment    :     -0.404318569       0.708368010      -0.917961440
                        -----------------------------------------
Magnitude (a.u.)       :      1.227970663
Magnitude (Debye)      :      3.121253375

VIBRATIONAL FREQUENCIES
-----------------------

Scaling factor for frequencies =  1.000000000  (already applied!)

     0:       0.00 cm**-1
     1:       0.00 cm**-1
     2:       0.00 cm**-1
     3:       0.00 cm**-1
     4:       0.00 cm**-1
     5:       0.00 cm**-1
     6:      88.37 cm**-1
     7:     186.84 cm**-1
     8:     194.88 cm**-1
     9:     205.29 cm**-1
    10:     215.35 cm**-1
    11:     234.14 cm**-1
    12:     266.69 cm**-1
    13:     300.95 cm**-1
    14:     309.46 cm**-1
    15:     335.82 cm**-1
    16:     382.30 cm**-1
    17:     434.57 cm**-1
    18:     459.98 cm**-1
    19:     524.84 cm**-1
    20:     540.28 cm**-1
    21:     620.29 cm**-1
    22:     687.63 cm**-1
    23:     751.93 cm**-1
    24:     810.31 cm**-1
    25:     855.53 cm**-1
    26:     874.38 cm**-1
    27:     879.44 cm**-1
    28:     932.20 cm**-1
    29:     937.47 cm**-1
    30:     979.82 cm**-1
    31:     986.44 cm**-1
    32:     992.27 cm**-1
    33:    1004.04 cm**-1
    34:    1033.23 cm**-1
    35:    1041.13 cm**-1
    36:    1064.20 cm**-1
    37:    1073.26 cm**-1
    38:    1119.74 cm**-1
    39:    1155.96 cm**-1
    40:    1183.87 cm**-1
    41:    1225.30 cm**-1
    42:    1236.79 cm**-1
    43:    1261.42 cm**-1
    44:    1276.86 cm**-1
    45:    1294.55 cm**-1
    46:    1307.92 cm**-1
    47:    1316.10 cm**-1
    48:    1341.79 cm**-1
    49:    1363.27 cm**-1
    50:    1394.53 cm**-1
    51:    1412.76 cm**-1
    52:    1430.00 cm**-1
    53:    1449.62 cm**-1
    54:    1456.03 cm**-1
    55:    1509.09 cm**-1
    56:    1515.30 cm**-1
    57:    1517.27 cm**-1
    58:    1522.69 cm**-1
    59:    1528.61 cm**-1
    60:    1531.25 cm**-1
    61:    1539.58 cm**-1
    62:    1544.37 cm**-1
    63:    1565.31 cm**-1
    64:    1893.11 cm**-1
    65:    3104.56 cm**-1
    66:    3104.90 cm**-1
    67:    3107.39 cm**-1
    68:    3117.50 cm**-1
    69:    3124.49 cm**-1
    70:    3133.12 cm**-1
    71:    3157.52 cm**-1
    72:    3172.74 cm**-1
    73:    3186.44 cm**-1
    74:    3195.48 cm**-1
    75:    3197.06 cm**-1
    76:    3197.84 cm**-1
    77:    3200.08 cm**-1
    78:    3203.21 cm**-1
    79:    3211.20 cm**-1
    80:    3213.21 cm**-1

IR SPECTRUM
-----------

 Mode   freq       eps      Int      T**2         TX        TY        TZ
       cm**-1   L/(mol*cm) km/mol    a.u.
----------------------------------------------------------------------------
  6:     88.37   0.000542    2.74  0.001916  (-0.010128  0.032376  0.027655)
  7:    186.84   0.000204    1.03  0.000341  (-0.005540  0.013136  0.011721)
  8:    194.88   0.000004    0.02  0.000007  (-0.000455  0.001224  0.002332)
  9:    205.29   0.000151    0.76  0.000229  ( 0.002061  0.013802  0.005870)
 10:    215.35   0.000162    0.82  0.000235  ( 0.005309  0.006523  0.012805)
 11:    234.14   0.000128    0.65  0.000171  (-0.012191 -0.003122  0.003488)
 12:    266.69   0.000062    0.31  0.000072  ( 0.008241 -0.001344  0.001600)
 13:    300.95   0.001217    6.15  0.001262  (-0.032786 -0.013179  0.003632)
 14:    309.46   0.000085    0.43  0.000086  ( 0.003466  0.007424 -0.004334)
 15:    335.82   0.000030    0.15  0.000028  (-0.000475 -0.004659  0.002436)
 16:    382.30   0.000084    0.43  0.000069  ( 0.004815 -0.004236  0.005272)
 17:    434.57   0.000135    0.68  0.000097  ( 0.008571 -0.000004 -0.004824)
 18:    459.98   0.000123    0.62  0.000083  ( 0.005903 -0.002357  0.006549)
 19:    524.84   0.000457    2.31  0.000272  ( 0.014937  0.002471  0.006541)
 20:    540.28   0.000555    2.81  0.000321  ( 0.011334  0.010688 -0.008837)
 21:    620.29   0.000081    0.41  0.000041  ( 0.002296  0.005720  0.001616)
 22:    687.63   0.000255    1.29  0.000116  ( 0.010280  0.002285  0.002178)
 23:    751.93   0.000140    0.71  0.000058  ( 0.005555 -0.004310 -0.002964)
 24:    810.31   0.000137    0.69  0.000053  ( 0.000703  0.005737  0.004413)
 25:    855.53   0.000668    3.38  0.000244  ( 0.014109 -0.001555  0.006508)
 26:    874.38   0.000796    4.02  0.000284  (-0.011473 -0.011982  0.002962)
 27:    879.44   0.000342    1.73  0.000121  (-0.000126 -0.007296  0.008257)
 28:    932.20   0.000131    0.66  0.000044  (-0.003912 -0.004525  0.002870)
 29:    937.47   0.000119    0.60  0.000040  (-0.001770  0.002501 -0.005501)
 30:    979.82   0.001440    7.28  0.000459  ( 0.018958  0.008969 -0.004350)
 31:    986.44   0.001129    5.70  0.000357  (-0.015825  0.006379  0.008122)
 32:    992.27   0.000302    1.52  0.000095  (-0.006933  0.004195  0.005406)
 33:   1004.04   0.000917    4.63  0.000285  (-0.016243  0.004101  0.002070)
 34:   1033.23   0.000664    3.36  0.000201  (-0.012459 -0.002320 -0.006329)
 35:   1041.13   0.000564    2.85  0.000169  ( 0.010652  0.000879  0.007394)
 36:   1064.20   0.000288    1.46  0.000084  ( 0.006486  0.005284 -0.003809)
 37:   1073.26   0.008308   41.99  0.002416  ( 0.047284  0.011898 -0.006195)
 38:   1119.74   0.000410    2.07  0.000114  (-0.001866 -0.010137  0.002843)
 39:   1155.96   0.001203    6.08  0.000325  ( 0.013073 -0.003472  0.011906)
 40:   1183.87   0.000616    3.12  0.000162  (-0.006818 -0.006907  0.008264)
 41:   1225.30   0.000421    2.13  0.000107  ( 0.004898  0.008262  0.003866)
 42:   1236.79   0.000255    1.29  0.000064  ( 0.007780  0.000302  0.001932)
 43:   1261.42   0.000099    0.50  0.000024  (-0.004394  0.000104  0.002264)
 44:   1276.86   0.000642    3.25  0.000157  ( 0.007806 -0.004513  0.008698)
 45:   1294.55   0.000161    0.82  0.000039  ( 0.005713  0.002470  0.000435)
 46:   1307.92   0.000577    2.92  0.000138  ( 0.010221  0.004302 -0.003834)
 47:   1316.10   0.000331    1.67  0.000078  ( 0.006097  0.002261 -0.006008)
 48:   1341.79   0.000592    2.99  0.000138  (-0.011061 -0.003499 -0.001776)
 49:   1363.27   0.000943    4.76  0.000216  ( 0.012975 -0.000144 -0.006887)
 50:   1394.53   0.000703    3.55  0.000157  (-0.005618 -0.009695  0.005633)
 51:   1412.76   0.000714    3.61  0.000158  (-0.011092 -0.003988  0.004332)
 52:   1430.00   0.001696    8.57  0.000370  ( 0.004330 -0.013131 -0.013379)
 53:   1449.62   0.003137   15.85  0.000675  (-0.024838 -0.007086 -0.002840)
 54:   1456.03   0.001547    7.82  0.000332  (-0.007253  0.014338 -0.008569)
 55:   1509.09   0.000366    1.85  0.000076  (-0.005082  0.005613  0.004295)
 56:   1515.30   0.000504    2.55  0.000104  (-0.003882  0.008095 -0.004827)
 57:   1517.27   0.001453    7.34  0.000299  (-0.004159  0.008002  0.014746)
 58:   1522.69   0.001686    8.52  0.000346  (-0.005986  0.004602 -0.016988)
 59:   1528.61   0.001994   10.08  0.000407  ( 0.017169 -0.001283 -0.010523)
 60:   1531.25   0.000955    4.83  0.000195  ( 0.011082 -0.007702 -0.003538)
 61:   1539.58   0.003123   15.78  0.000633  ( 0.004270  0.023954  0.006408)
 62:   1544.37   0.002836   14.33  0.000573  (-0.011310  0.003516 -0.020804)
 63:   1565.31   0.002194   11.09  0.000437  ( 0.020157 -0.002018 -0.005190)
 64:   1893.11   0.046497  234.97  0.007665  (-0.028674  0.051429 -0.064787)
 65:   3104.56   0.005634   28.47  0.000566  (-0.004119 -0.020280 -0.011752)
 66:   3104.90   0.004647   23.48  0.000467  (-0.017411 -0.010245  0.007678)
 67:   3107.39   0.005389   27.23  0.000541  ( 0.022594  0.004757 -0.002842)
 68:   3117.50   0.005752   29.07  0.000576  (-0.015872 -0.003695  0.017612)
 69:   3124.49   0.005764   29.13  0.000576  (-0.010315 -0.014453 -0.016136)
 70:   3133.12   0.006805   34.39  0.000678  ( 0.016726 -0.019873 -0.001760)
 71:   3157.52   0.007743   39.13  0.000765  ( 0.005091  0.015294 -0.022482)
 72:   3172.74   0.001447    7.31  0.000142  ( 0.007099 -0.004215  0.008611)
 73:   3186.44   0.002684   13.57  0.000263  ( 0.013957 -0.007657 -0.003073)
 74:   3195.48   0.002125   10.74  0.000207  ( 0.011773  0.008094 -0.001833)
 75:   3197.06   0.002764   13.97  0.000270  ( 0.014955 -0.006246  0.002668)
 76:   3197.84   0.002636   13.32  0.000257  ( 0.008254  0.012509  0.005715)
 77:   3200.08   0.003683   18.61  0.000359  ( 0.006584 -0.011153  0.013834)
 78:   3203.21   0.001499    7.58  0.000146  (-0.002030  0.005889  0.010358)
 79:   3211.20   0.003882   19.62  0.000377  ( 0.006751 -0.012735 -0.013019)
 80:   3213.21   0.001983   10.02  0.000193  ( 0.010044  0.005635  0.007745)

--------------------------
THERMOCHEMISTRY AT 298.15K
--------------------------

Temperature         ...   298.15 K
Pressure            ...     1.00 atm
Total Mass          ...   152.24 AMU
Quasi RRHO          ...     True
Cut-Off Frequency   ...     1.00 cm^-1

Throughout the following assumptions are being made:
  (1) The electronic state is orbitally nondegenerate
  (2) There are no thermally accessible electronically excited states
  (3) Hindered rotations indicated by low frequency modes are not
      treated as such but are treated as vibrations and this may
      cause some error
  (4) All equations used are the standard statistical mechanics
      equations for an ideal gas
  (5) All vibrations are strictly harmonic

freq.      88.37  E(vib)   ...       0.48
freq.     186.84  E(vib)   ...       0.37
freq.     194.88  E(vib)   ...       0.36
freq.     205.29  E(vib)   ...       0.35
freq.     215.35  E(vib)   ...       0.34
freq.     234.14  E(vib)   ...       0.32
freq.     266.69  E(vib)   ...       0.29
freq.     300.95  E(vib)   ...       0.26
freq.     309.46  E(vib)   ...       0.26
freq.     335.82  E(vib)   ...       0.24
freq.     382.30  E(vib)   ...       0.21
freq.     434.57  E(vib)   ...       0.17
freq.     459.98  E(vib)   ...       0.16
freq.     524.84  E(vib)   ...       0.13
freq.     540.28  E(vib)   ...       0.12
freq.     620.29  E(vib)   ...       0.09
freq.     687.63  E(vib)   ...       0.07
freq.     751.93  E(vib)   ...       0.06
freq.     810.31  E(vib)   ...       0.05
freq.     855.53  E(vib)   ...       0.04
freq.     874.38  E(vib)   ...       0.04
freq.     879.44  E(vib)   ...       0.04
freq.     932.20  E(vib)   ...       0.03
freq.     937.47  E(vib)   ...       0.03
freq.     979.82  E(vib)   ...       0.02
freq.     986.44  E(vib)   ...       0.02
freq.     992.27  E(vib)   ...       0.02
freq.    1004.04  E(vib)   ...       0.02
freq.    1033.23  E(vib)   ...       0.02
freq.    1041.13  E(vib)   ...       0.02
freq.    1064.20  E(vib)   ...       0.02
freq.    1073.26  E(vib)   ...       0.02
freq.    1119.74  E(vib)   ...       0.01
freq.    1155.96  E(vib)   ...       0.01
freq.    1183.87  E(vib)   ...       0.01
freq.    1225.30  E(vib)   ...       0.01
freq.    1236.79  E(vib)   ...       0.01
freq.    1261.42  E(vib)   ...       0.01
freq.    1276.86  E(vib)   ...       0.01
freq.    1294.55  E(vib)   ...       0.01
freq.    1307.92  E(vib)   ...       0.01
freq.    1316.10  E(vib)   ...       0.01
freq.    1341.79  E(vib)   ...       0.01
freq.    1363.27  E(vib)   ...       0.01
freq.    1394.53  E(vib)   ...       0.00
freq.    1412.76  E(vib)   ...       0.00
freq.    1430.00  E(vib)   ...       0.00
freq.    1449.62  E(vib)   ...       0.00
freq.    1456.03  E(vib)   ...       0.00
freq.    1509.09  E(vib)   ...       0.00
freq.    1515.30  E(vib)   ...       0.00
freq.    1517.27  E(vib)   ...       0.00
freq.    1522.69  E(vib)   ...       0.00
freq.    1528.61  E(vib)   ...       0.00
freq.    1531.25  E(vib)   ...       0.00
freq.    1539.58  E(vib)   ...       0.00
freq.    1544.37  E(vib)   ...       0.00
freq.    1565.31  E(vib)   ...       0.00
freq.    1893.11  E(vib)   ...       0.00
freq.    3104.56  E(vib)   ...       0.00
freq.    3104.90  E(vib)   ...       0.00
freq.    3107.39  E(vib)   ...       0.00
freq.    3117.50  E(vib)   ...       0.00
freq.    3124.49  E(vib)   ...       0.00
freq.    3133.12  E(vib)   ...       0.00
freq.    3157.52  E(vib)   ...       0.00
freq.    3172.74  E(vib)   ...       0.00
freq.    3186.44  E(vib)   ...       0.00
freq.    3195.48  E(vib)   ...       0.00
freq.    3197.06  E(vib)   ...       0.00
freq.    3197.84  E(vib)   ...       0.00
freq.    3200.08  E(vib)   ...       0.00
freq.    3203.21  E(vib)   ...       0.00
freq.    3211.20  E(vib)   ...       0.00
freq.    3213.21  E(vib)   ...       0.00

------------
INNER ENERGY
------------

The inner energy is: U= E(el) + E(ZPE) + E(vib) + E(rot) + E(trans)
    E(el)   - is the total energy from the electronic structure calculation
              = E(kin-el) + E(nuc-el) + E(el-el) + E(nuc-nuc)
    E(ZPE)  - the the zero temperature vibrational energy from the frequency calculation
    E(vib)  - the the finite temperature correction to E(ZPE) due to population
              of excited vibrational states
    E(rot)  - is the rotational thermal energy
    E(trans)- is the translational thermal energy

Summary of contributions to the inner energy U:
Electronic energy                ...    -82.70512027 Eh
Zero point energy                ...      0.24768959 Eh     155.43 kcal/mol
Thermal vibrational correction   ...      0.00766189 Eh       4.81 kcal/mol
Thermal rotational correction    ...      0.00141627 Eh       0.89 kcal/mol
Thermal translational correction ...      0.00141627 Eh       0.89 kcal/mol
-----------------------------------------------------------------------
Total thermal energy                    -82.44693625 Eh

Summary of corrections to the electronic energy:
(perhaps to be used in another calculation)
Total thermal correction                  0.01049443 Eh       6.59 kcal/mol
Non-thermal (ZPE) correction              0.24768959 Eh     155.43 kcal/mol
-----------------------------------------------------------------------
Total correction                          0.25818402 Eh     162.01 kcal/mol

--------
ENTHALPY
--------

The enthalpy is H = U + kB*T
                kB is Boltzmann's constant
Total thermal energy              ...    -82.44693625 Eh
Thermal Enthalpy correction       ...      0.00094421 Eh       0.59 kcal/mol
-----------------------------------------------------------------------
Total Enthalpy                    ...    -82.44599204 Eh

Note: Only C1 symmetry has been detected, increase convergence thresholds
      if your molecule has a higher symmetry. Symmetry factor of 1.0 is
      used for the rotational entropy correction.

Note: Rotational entropy computed according to Herzberg
Infrared and Raman Spectra, Chapter V,1, Van Nostrand Reinhold, 1945
Point Group:  C1, Symmetry Number:   1
Rotational constants in cm-1:     0.052670     0.039537     0.032531

Vibrational entropy computed according to the QRRHO of S. Grimme
Chem.Eur.J. 2012 18 9955 using a reference frequency of 100.0 cm-1

-------
ENTROPY
-------

The entropy contributions are T*S = T*(S(el)+S(vib)+S(rot)+S(trans))
     S(el)   - electronic entropy
     S(vib)  - vibrational entropy
     S(rot)  - rotational entropy
     S(trans)- translational entropy

                             ****ORCA TERMINATED NORMALLY****
TOTAL RUN TIME: 0 days 0 hours 11 minutes 28 seconds 265 msec
