                         Program Version 6.0.1  -  RELEASE   -
|  1> # input to generate an atomic fitting density for S
|  2> # this file is used internally by ORCA
|  3> #
|  4> # atomic ground state (Mult=3): 1s2 2s2 2p6 3s2 3p4
|  5> #
|  6> ! ROHF def2-SVP def2/J Conv LeanSCF AODIIS SOSCF NoMulliken NoLoewdin NoMayer NoPrintMOs
|  7>
|  8> %output print[p_atomdensfit] 2 end
|  9>
| 10> %scf
| 11>   guess     HCore
| 12>   maxiter    1000
| 13>   maxdisk  500000
| 14>   diismaxeq     8
| 15>   soscfstart 1e-4
| 16>   lshift  1.000000
| 17>   ignoreconv true
| 18>
| 19>   hftyp        rohf
| 20>   rohf_case    sahf
| 21>   rohf_numop   2
| 22>   rohf_norb[1] 3
| 23>   rohf_nel[1]  4
| 24>
| 25> end
| 26>
| 27> %basis
| 28>   NewECP 16
| 29>     N_core 10
| 30>     lmax f
| 31>     s 1
| 32>       1       3.7438916400     37.9748190000  2
| 33>     p 1
| 34>       1       3.0860874400     18.7905293100  2
| 35>     d 1
| 36>       1       4.8624140000     -7.8379640000  2
| 37>     f 1
| 38>       1       1.0000000000      0.0000000000  2
| 39>   end
| 40>   NewGTO 16
| 41>     s 4
| 42>      1       7.6013552695      0.0405945505
| 43>      2       1.9271212187     -0.4059237975
| 44>      3       0.5214563075      0.5033521778
| 45>      4       0.2305322405      0.7224689173
| 46>     s 2
| 47>      1       0.4700053479      0.1229391783
| 48>      2       0.0834692104      0.9207614490
| 49>     p 4
| 50>      1       1.7116392578     -0.1721488488
| 51>      2       1.1572761602      0.2565076562
| 52>      3       0.4497270776      0.5141168357
| 53>      4       0.1952907287      0.4498933522
| 54>     p 2
| 55>      1       0.1210424109      0.4752637159
| 56>      2       0.0610439153      0.5597233542
| 57>   end
| 58>   NewAuxGTO 16
| 59>     S 1
| 60>      1 1310.72 1.0
| 61>     S 1
| 62>      1  655.36 1.0
| 63>     S 1
| 64>      1  327.68 1.0
| 65>     S 1
| 66>      1  163.84 1.0
| 67>     S 1
| 68>      1   81.82 1.0
| 69>     S 1
| 70>      1   40.96 1.0
| 71>     S 1
| 72>      1   20.48 1.0
| 73>     S 1
| 74>      1   10.24 1.0
| 75>     S 1
| 76>      1    5.12 1.0
| 77>     S 1
| 78>      1    2.56 1.0
| 79>     S 1
| 80>      1    1.28 1.0
| 81>     S 1
| 82>      1    0.64 1.0
| 83>     S 1
| 84>      1    0.32 1.0
| 85>     S 1
| 86>      1    0.16 1.0
| 87>     S 1
| 88>      1    0.08 1.0
| 89>     S 1
| 90>      1    0.04 1.0
| 91>     S 1
| 92>      1    0.02 1.0
| 93>     S 1
| 94>      1    0.01 1.0
| 95>   end
| 96> end
| 97>
| 98> * xyz 0 3
| 99> 16  0.0 0.0 0.0
|100> *
|101>
|102>
|103>                          ****END OF INPUT****

CARTESIAN COORDINATES (ANGSTROEM)
---------------------------------
  S      0.000000    0.000000    0.000000

 Total Charge           Charge          ....    0
 Multiplicity           Mult            ....    3
 Number of Electrons    NEL             ....    6
 Basis Dimension        Dim             ....    8

ORBITAL ENERGIES
----------------

  NO   OCC          E(Eh)            E(eV)
   0   2.0000      -0.886375       -24.1195
   1   1.3333      -0.440522       -11.9872
   2   1.3333      -0.440522       -11.9872
   3   1.3333      -0.440522       -11.9872
   4   0.0000       0.247590         6.7373
   5   0.0000       0.247590         6.7373
   6   0.0000       0.247590         6.7373
   7   0.0000       0.684769        18.6335

FINAL SINGLE POINT ENERGY        -9.950162526570

DIPOLE MOMENT
-------------

Method             : SCF
Type of density    : Electron Density
Multiplicity       :   3
Irrep              :   0
Energy             :    -9.9501625265703204 Eh
Relativity type    :
Basis              : AO
                                X                 Y                 Z
Electronic contribution:     -0.000000000      -0.000000000      -0.000000000
Nuclear contribution   :      0.000000000       0.000000000       0.000000000
                        -----------------------------------------
Total Dipole Moment    :      0.000000000       0.000000000       0.000000000
                        -----------------------------------------
Magnitude (a.u.)       :      0.000000000
Magnitude (Debye)      :      0.000000000

Rotational constants in cm-1:             0.000000             0.000000             0.000000
Rotational constants in MHz :             0.000000             0.000000             0.000000

                             ****ORCA TERMINATED NORMALLY****
TOTAL RUN TIME: 0 days 0 hours 0 minutes 0 seconds 418 msec
