                         Program Version 6.0.1  -  RELEASE   -
|  1> ! wB97X-3c OPT FREQ TightSCF
|  2> %pal
|  3>   nprocs 40
|  4> end
|  5> * xyz 0 1
|  6> C     -1.322264     0.811578     0.009483
|  7> C     -0.837381    -0.261631     0.640316
|  8> C      0.258317    -1.102320     0.043710
|  9> N      1.563402    -0.483442     0.250457
| 10> C      1.925128     0.559575    -0.383216
| 11> S      2.380997     1.880324    -1.185557
| 12> H     -2.114885     1.396551     0.464443
| 13> H     -0.938247     1.111305    -0.960873
| 14> H     -1.249982    -0.540266     1.605538
| 15> H      0.257343    -2.087712     0.554896
| 16> H      0.077573    -1.283962    -1.039198
| 17> *
| 18>
| 19>                          ****END OF INPUT****
 Total Charge           Charge          ....    0
 Multiplicity           Mult            ....    1
 Number of Electrons    NEL             ....   32
Dispersion correction           -0.011083426
FINAL SINGLE POINT ENERGY       -45.903000982626
Dispersion correction             ... done (  0.1 sec)
Dispersion correction           -0.011079486
FINAL SINGLE POINT ENERGY       -45.915261834370
Dispersion correction             ... done (  0.1 sec)
Dispersion correction           -0.010951371
FINAL SINGLE POINT ENERGY       -45.917254629961
Dispersion correction             ... done (  0.1 sec)
FINAL SINGLE POINT ENERGY       -45.919277399527
FINAL SINGLE POINT ENERGY       -45.920974948124
FINAL SINGLE POINT ENERGY       -45.921933899235
FINAL SINGLE POINT ENERGY       -45.922224436358
FINAL SINGLE POINT ENERGY       -45.922313351782
FINAL SINGLE POINT ENERGY       -45.922340487376
FINAL SINGLE POINT ENERGY       -45.922354059761
FINAL SINGLE POINT ENERGY       -45.922437694844
FINAL SINGLE POINT ENERGY       -45.922447956630
FINAL SINGLE POINT ENERGY       -45.922459058926
FINAL SINGLE POINT ENERGY       -45.922477326941
FINAL SINGLE POINT ENERGY       -45.922498818326
FINAL SINGLE POINT ENERGY       -45.922517190893
FINAL SINGLE POINT ENERGY       -45.922527734360
Dispersion correction             ... done (  0.1 sec)
Dispersion correction           -0.010359580
FINAL SINGLE POINT ENERGY       -45.922529969219
Dispersion correction             ... done (  0.1 sec)
Dispersion correction           -0.010358134
FINAL SINGLE POINT ENERGY       -45.922530226801
Dispersion correction             ... done (  0.1 sec)
                    ***********************HURRAY********************

CARTESIAN COORDINATES (ANGSTROEM)
---------------------------------
  C     -1.838161    0.498190    0.038246
  C     -0.696977    0.053007    0.531868
  C      0.191257   -0.911304   -0.187104
  N      1.512446   -0.397616   -0.352732
  C      2.318475    0.455782   -0.247355
  S      3.464394    1.544276   -0.144809
  H     -2.462692    1.182015    0.596581
  H     -2.189186    0.193720   -0.940257
  H     -0.354932    0.377364    1.508423
  H      0.268418   -1.847052    0.366996
  H     -0.213042   -1.148381   -1.169858

 Multiplicity           Mult            ....    1
 Number of Electrons    NEL             ....   32
 Basis Dimension        Dim             ....  103

ORBITAL ENERGIES
----------------

  NO   OCC          E(Eh)            E(eV)
   0   2.0000      -1.113572       -30.3018
   1   2.0000      -0.970702       -26.4141
   2   2.0000      -0.914184       -24.8762
   3   2.0000      -0.865901       -23.5624
   4   2.0000      -0.727492       -19.7961
   5   2.0000      -0.671350       -18.2684
   6   2.0000      -0.623204       -16.9582
   7   2.0000      -0.594367       -16.1735
   8   2.0000      -0.561586       -15.2815
   9   2.0000      -0.546993       -14.8844
  10   2.0000      -0.517587       -14.0843
  11   2.0000      -0.492947       -13.4138
  12   2.0000      -0.478025       -13.0077
  13   2.0000      -0.398165       -10.8346
  14   2.0000      -0.347570        -9.4579
  15   2.0000      -0.342086        -9.3086
  16   0.0000       0.056494         1.5373
  17   0.0000       0.073758         2.0071
  18   0.0000       0.083343         2.2679
  19   0.0000       0.086653         2.3579
  20   0.0000       0.099000         2.6939

MULLIKEN ATOMIC CHARGES
-----------------------
   0 C :   -0.014169
   1 C :   -0.032675
   2 C :    0.038016
   3 N :    0.024692
   4 C :   -0.016428
   5 S :   -0.222907
   6 H :    0.036462
   7 H :    0.029703
   8 H :    0.033792
   9 H :    0.068563
  10 H :    0.054950
Sum of atomic charges:   -0.0000000

LOEWDIN ATOMIC CHARGES
----------------------
   0 C :   -0.051354
   1 C :   -0.046716
   2 C :   -0.074006
   3 N :    0.053698
   4 C :   -0.272281
   5 S :    0.122722
   6 H :    0.045202
   7 H :    0.039899
   8 H :    0.048670
   9 H :    0.067310
  10 H :    0.066857

  Mayer bond orders larger than 0.100000
B(  0-C ,  1-C ) :   1.9321 B(  0-C ,  6-H ) :   0.9950 B(  0-C ,  7-H ) :   0.9987
B(  1-C ,  2-C ) :   1.0167 B(  1-C ,  8-H ) :   1.0003 B(  2-C ,  3-N ) :   0.9485
B(  2-C ,  9-H ) :   0.9824 B(  2-C , 10-H ) :   0.9883 B(  3-N ,  4-C ) :   2.1470
B(  3-N ,  5-S ) :   0.2086 B(  4-C ,  5-S ) :   1.9356

Dispersion correction           -0.010357189
FINAL SINGLE POINT ENERGY       -45.922530280812

DIPOLE MOMENT
-------------

Method             : SCF
Type of density    : Electron Density
Multiplicity       :   1
Irrep              :   0
Energy             :   -45.9121730915951360 Eh
Relativity type    :
Basis              : AO
                                X                 Y                 Z
Electronic contribution:     32.128550190      13.957992952      -1.275986257
Nuclear contribution   :    -33.407722720     -14.607585081       1.363088427
                        -----------------------------------------
Total Dipole Moment    :     -1.279172529      -0.649592129       0.087102170
                        -----------------------------------------
Magnitude (a.u.)       :      1.437302711
Magnitude (Debye)      :      3.653333155

VIBRATIONAL FREQUENCIES
-----------------------

Scaling factor for frequencies =  1.000000000  (already applied!)

     0:       0.00 cm**-1
     1:       0.00 cm**-1
     2:       0.00 cm**-1
     3:       0.00 cm**-1
     4:       0.00 cm**-1
     5:       0.00 cm**-1
     6:      27.99 cm**-1
     7:      52.89 cm**-1
     8:     122.00 cm**-1
     9:     350.51 cm**-1
    10:     416.87 cm**-1
    11:     474.19 cm**-1
    12:     511.01 cm**-1
    13:     640.29 cm**-1
    14:     744.92 cm**-1
    15:     945.54 cm**-1
    16:     980.82 cm**-1
    17:     990.74 cm**-1
    18:    1044.43 cm**-1
    19:    1174.34 cm**-1
    20:    1185.10 cm**-1
    21:    1309.89 cm**-1
    22:    1343.53 cm**-1
    23:    1393.27 cm**-1
    24:    1482.75 cm**-1
    25:    1522.07 cm**-1
    26:    1776.34 cm**-1
    27:    2261.68 cm**-1
    28:    3128.65 cm**-1
    29:    3187.76 cm**-1
    30:    3212.11 cm**-1
    31:    3237.52 cm**-1
    32:    3313.57 cm**-1

IR SPECTRUM
-----------

 Mode   freq       eps      Int      T**2         TX        TY        TZ
       cm**-1   L/(mol*cm) km/mol    a.u.
----------------------------------------------------------------------------
  6:     27.99   0.000413    2.09  0.004603  (-0.013083 -0.034085  0.057185)
  7:     52.89   0.001034    5.22  0.006099  (-0.053097 -0.037913 -0.042919)
  8:    122.00   0.000650    3.28  0.001662  ( 0.013421  0.031310 -0.022399)
  9:    350.51   0.001373    6.94  0.001222  ( 0.001124  0.031029  0.016066)
 10:    416.87   0.000448    2.26  0.000335  (-0.009943 -0.013496  0.007379)
 11:    474.19   0.000422    2.13  0.000278  ( 0.003392 -0.004421  0.015699)
 12:    511.01   0.005374   27.16  0.003282  ( 0.035633  0.041788  0.016299)
 13:    640.29   0.002366   11.96  0.001153  (-0.008797  0.032505 -0.004400)
 14:    744.92   0.015356   77.60  0.006433  ( 0.064101  0.046684 -0.012027)
 15:    945.54   0.000885    4.47  0.000292  ( 0.015696  0.002937 -0.006081)
 16:    980.82   0.008935   45.15  0.002843  ( 0.027010  0.044502 -0.011526)
 17:    990.74   0.002997   15.15  0.000944  (-0.013650 -0.017617  0.021151)
 18:   1044.43   0.004437   22.42  0.001326  ( 0.020926  0.027143 -0.012291)
 19:   1174.34   0.002891   14.61  0.000768  ( 0.001699  0.024784  0.012291)
 20:   1185.10   0.001326    6.70  0.000349  ( 0.015886  0.008192  0.005440)
 21:   1309.89   0.000465    2.35  0.000111  (-0.000963 -0.009951  0.003309)
 22:   1343.53   0.001393    7.04  0.000324  ( 0.016035  0.007496  0.003206)
 23:   1393.27   0.008420   42.55  0.001886  ( 0.040679  0.015114 -0.001628)
 24:   1482.75   0.004206   21.26  0.000885  ( 0.028555 -0.001338  0.008253)
 25:   1522.07   0.001020    5.16  0.000209  (-0.009919  0.003791  0.009819)
 26:   1776.34   0.000780    3.94  0.000137  ( 0.009504 -0.006474  0.002208)
 27:   2261.68   0.305451  1543.63  0.042146  ( 0.162471  0.125125  0.009623)
 28:   3128.65   0.004530   22.89  0.000452  (-0.011354 -0.017817 -0.002346)
 29:   3187.76   0.000468    2.36  0.000046  ( 0.003314  0.001475  0.005713)
 30:   3212.11   0.000893    4.51  0.000087  (-0.007165 -0.000142 -0.005950)
 31:   3237.52   0.000353    1.78  0.000034  (-0.000247  0.000675  0.005788)
 32:   3313.57   0.000243    1.23  0.000023  ( 0.000583 -0.002215 -0.004197)

--------------------------
THERMOCHEMISTRY AT 298.15K
--------------------------

Temperature         ...   298.15 K
Pressure            ...     1.00 atm
Total Mass          ...    99.15 AMU
Quasi RRHO          ...     True
Cut-Off Frequency   ...     1.00 cm^-1

Throughout the following assumptions are being made:
  (1) The electronic state is orbitally nondegenerate
  (2) There are no thermally accessible electronically excited states
  (3) Hindered rotations indicated by low frequency modes are not
      treated as such but are treated as vibrations and this may
      cause some error
  (4) All equations used are the standard statistical mechanics
      equations for an ideal gas
  (5) All vibrations are strictly harmonic

freq.      27.99  E(vib)   ...       0.55
freq.      52.89  E(vib)   ...       0.52
freq.     122.00  E(vib)   ...       0.44
freq.     350.51  E(vib)   ...       0.23
freq.     416.87  E(vib)   ...       0.18
freq.     474.19  E(vib)   ...       0.15
freq.     511.01  E(vib)   ...       0.14
freq.     640.29  E(vib)   ...       0.09
freq.     744.92  E(vib)   ...       0.06
freq.     945.54  E(vib)   ...       0.03
freq.     980.82  E(vib)   ...       0.02
freq.     990.74  E(vib)   ...       0.02
freq.    1044.43  E(vib)   ...       0.02
freq.    1174.34  E(vib)   ...       0.01
freq.    1185.10  E(vib)   ...       0.01
freq.    1309.89  E(vib)   ...       0.01
freq.    1343.53  E(vib)   ...       0.01
freq.    1393.27  E(vib)   ...       0.00
freq.    1482.75  E(vib)   ...       0.00
freq.    1522.07  E(vib)   ...       0.00
freq.    1776.34  E(vib)   ...       0.00
freq.    2261.68  E(vib)   ...       0.00
freq.    3128.65  E(vib)   ...       0.00
freq.    3187.76  E(vib)   ...       0.00
freq.    3212.11  E(vib)   ...       0.00
freq.    3237.52  E(vib)   ...       0.00
freq.    3313.57  E(vib)   ...       0.00

------------
INNER ENERGY
------------

The inner energy is: U= E(el) + E(ZPE) + E(vib) + E(rot) + E(trans)
    E(el)   - is the total energy from the electronic structure calculation
              = E(kin-el) + E(nuc-el) + E(el-el) + E(nuc-nuc)
    E(ZPE)  - the the zero temperature vibrational energy from the frequency calculation
    E(vib)  - the the finite temperature correction to E(ZPE) due to population
              of excited vibrational states
    E(rot)  - is the rotational thermal energy
    E(trans)- is the translational thermal energy

Summary of contributions to the inner energy U:
Electronic energy                ...    -45.92253028 Eh
Zero point energy                ...      0.08390671 Eh      52.65 kcal/mol
Thermal vibrational correction   ...      0.00398310 Eh       2.50 kcal/mol
Thermal rotational correction    ...      0.00141627 Eh       0.89 kcal/mol
Thermal translational correction ...      0.00141627 Eh       0.89 kcal/mol
-----------------------------------------------------------------------
Total thermal energy                    -45.83180793 Eh

Summary of corrections to the electronic energy:
(perhaps to be used in another calculation)
Total thermal correction                  0.00681565 Eh       4.28 kcal/mol
Non-thermal (ZPE) correction              0.08390671 Eh      52.65 kcal/mol
-----------------------------------------------------------------------
Total correction                          0.09072235 Eh      56.93 kcal/mol

--------
ENTHALPY
--------

The enthalpy is H = U + kB*T
                kB is Boltzmann's constant
Total thermal energy              ...    -45.83180793 Eh
Thermal Enthalpy correction       ...      0.00094421 Eh       0.59 kcal/mol
-----------------------------------------------------------------------
Total Enthalpy                    ...    -45.83086372 Eh

Note: Only C1 symmetry has been detected, increase convergence thresholds
      if your molecule has a higher symmetry. Symmetry factor of 1.0 is
      used for the rotational entropy correction.

Note: Rotational entropy computed according to Herzberg
Infrared and Raman Spectra, Chapter V,1, Van Nostrand Reinhold, 1945
Point Group:  C1, Symmetry Number:   1
Rotational constants in cm-1:     0.285191     0.040291     0.036533

Vibrational entropy computed according to the QRRHO of S. Grimme
Chem.Eur.J. 2012 18 9955 using a reference frequency of 100.0 cm-1

-------
ENTROPY
-------

The entropy contributions are T*S = T*(S(el)+S(vib)+S(rot)+S(trans))
     S(el)   - electronic entropy
     S(vib)  - vibrational entropy
     S(rot)  - rotational entropy
     S(trans)- translational entropy
The entropies will be listed as multiplied by the temperature to get
units of energy

Electronic entropy                ...      0.00000000 Eh      0.00 kcal/mol
Vibrational entropy               ...      0.00726824 Eh      4.56 kcal/mol
Rotational entropy                ...      0.01318167 Eh      8.27 kcal/mol
Translational entropy             ...      0.01885917 Eh     11.83 kcal/mol
-----------------------------------------------------------------------
Final entropy term                ...      0.03930908 Eh     24.67 kcal/mol

In case the symmetry of your molecule has not been determined correctly
or in case you have a reason to use a different symmetry number we print
out the resulting rotational entropy values for sn=1,12:

 non-linear molecules -----------------------------------
|  sn= 1 | S(rot)=       0.01318167 Eh      8.27 kcal/mol|
|  sn= 2 | S(rot)=       0.01252721 Eh      7.86 kcal/mol|
|  sn= 3 | S(rot)=       0.01214438 Eh      7.62 kcal/mol|
|  sn= 4 | S(rot)=       0.01187276 Eh      7.45 kcal/mol|
|  sn= 5 | S(rot)=       0.01166207 Eh      7.32 kcal/mol|
|  sn= 6 | S(rot)=       0.01148993 Eh      7.21 kcal/mol|
|  sn= 7 | S(rot)=       0.01134438 Eh      7.12 kcal/mol|
|  sn= 8 | S(rot)=       0.01121830 Eh      7.04 kcal/mol|
|  sn= 9 | S(rot)=       0.01110709 Eh      6.97 kcal/mol|
|  sn=10 | S(rot)=       0.01100761 Eh      6.91 kcal/mol|
|  sn=11 | S(rot)=       0.01091762 Eh      6.85 kcal/mol|
|  sn=12 | S(rot)=       0.01083547 Eh      6.80 kcal/mol|
 linear molecules ---------------------------------------
|  Dinfh | S(rot)=       0.00845060 Eh      5.30 kcal/mol|
|  Cinfv | S(rot)=       0.00910506 Eh      5.71 kcal/mol|
 --------------------------------------------------------

-------------------
GIBBS FREE ENERGY
-------------------

The Gibbs free energy is G = H - T*S

Total enthalpy                    ...    -45.83086372 Eh
Total entropy correction          ...     -0.03930908 Eh    -24.67 kcal/mol
-----------------------------------------------------------------------
Final Gibbs free energy         ...    -45.87017280 Eh

For completeness - the Gibbs free energy minus the electronic energy
G-E(el)                           ...      0.05235748 Eh     32.85 kcal/mol

                             ****ORCA TERMINATED NORMALLY****
TOTAL RUN TIME: 0 days 0 hours 9 minutes 37 seconds 423 msec
