                         Program Version 6.0.1  -  RELEASE   -
|  1> ! wB97X-3c OPT FREQ TightSCF
|  2> %pal
|  3>   nprocs 40
|  4> end
|  5> * xyz 0 1
|  6> C     -4.420674     0.733635     2.217698
|  7> C     -4.940468     0.346837     0.855011
|  8> C     -4.174112     0.428920    -0.256484
|  9> C     -2.723463     0.842271    -0.259523
| 10> C     -1.812249    -0.369311    -0.034262
| 11> C     -0.360725     0.053396     0.022915
| 12> C      0.286701     0.335642    -1.131090
| 13> C      1.734180     0.749824    -1.221057
| 14> C      2.652994    -0.475692    -1.271938
| 15> C      4.105068    -0.053687    -1.381293
| 16> C      4.882936     0.182187    -0.300538
| 17> C      4.432737     0.014808     1.128122
| 18> O      4.246929    -1.340829     1.431937
| 19> C      4.694751     0.167155    -2.750173
| 20> C      0.315350     0.170067     1.369062
| 21> C     -6.372426    -0.109587     0.746760
| 22> H     -5.198706     0.578168     2.995026
| 23> H     -3.540419     0.115548     2.487646
| 24> H     -4.139940     1.807494     2.227067
| 25> H     -4.602721     0.160792    -1.218591
| 26> H     -2.528302     1.625280     0.503762
| 27> H     -2.493494     1.289037    -1.250937
| 28> H     -2.097099    -0.883447     0.907773
| 29> H     -1.955459    -1.107744    -0.854212
| 30> H     -0.255394     0.256148    -2.070156
| 31> H      2.008788     1.423247    -0.383266
| 32> H      1.867720     1.332243    -2.158626
| 33> H      2.382124    -1.092202    -2.156968
| 34> H      2.492802    -1.126277    -0.389724
| 35> H      5.903643     0.524144    -0.454042
| 36> H      3.485856     0.565413     1.299937
| 37> H      5.195179     0.453487     1.810408
| 38> H      5.151871    -1.744962     1.493326
| 39> H      3.944322    -0.013701    -3.548352
| 40> H      5.549211    -0.524585    -2.907052
| 41> H      5.051645     1.214954    -2.842186
| 42> H      0.679383     1.206687     1.525678
| 43> H      1.163907    -0.539504     1.437529
| 44> H     -0.388878    -0.062183     2.195014
| 45> H     -6.533596    -0.984126     1.411455
| 46> H     -6.642770    -0.406619    -0.289335
| 47> H     -7.047202     0.713137     1.063679
| 48> *
| 49>
| 50>                          ****END OF INPUT****
 Total Charge           Charge          ....    0
 Multiplicity           Mult            ....    1
 Number of Electrons    NEL             ....   92
Dispersion correction           -0.047382822
FINAL SINGLE POINT ENERGY      -117.141675694413
Dispersion correction             ... done (  0.1 sec)
Dispersion correction           -0.047598586
FINAL SINGLE POINT ENERGY      -117.154223590159
Dispersion correction             ... done (  0.1 sec)
Dispersion correction           -0.047504395
FINAL SINGLE POINT ENERGY      -117.156283821390
Dispersion correction             ... done (  0.1 sec)
FINAL SINGLE POINT ENERGY      -117.158087477788
FINAL SINGLE POINT ENERGY      -117.159108347883
FINAL SINGLE POINT ENERGY      -117.159690175665
FINAL SINGLE POINT ENERGY      -117.160399208936
FINAL SINGLE POINT ENERGY      -117.161250720499
FINAL SINGLE POINT ENERGY      -117.162051682168
FINAL SINGLE POINT ENERGY      -117.162648569029
FINAL SINGLE POINT ENERGY      -117.164903882107
FINAL SINGLE POINT ENERGY      -117.164932326995
FINAL SINGLE POINT ENERGY      -117.164962174655
FINAL SINGLE POINT ENERGY      -117.164980589768
FINAL SINGLE POINT ENERGY      -117.164984565199
FINAL SINGLE POINT ENERGY      -117.164987512794
FINAL SINGLE POINT ENERGY      -117.164990956484
Dispersion correction             ... done (  0.1 sec)
Dispersion correction           -0.046600491
FINAL SINGLE POINT ENERGY      -117.164992424298
Dispersion correction             ... done (  0.1 sec)
Dispersion correction           -0.046592405
FINAL SINGLE POINT ENERGY      -117.164993466262
Dispersion correction             ... done (  0.1 sec)
                    ***********************HURRAY********************

CARTESIAN COORDINATES (ANGSTROEM)
---------------------------------
  C     -4.834519    0.424678    2.358447
  C     -5.084403    0.237642    0.894427
  C     -4.196994    0.492848   -0.062350
  C     -2.795931    0.989683    0.095729
  C     -1.770508   -0.125209   -0.104604
  C     -0.346210    0.348282   -0.051852
  C      0.439657    0.245429   -1.119524
  C      1.873674    0.651604   -1.237062
  C      2.816524   -0.550368   -1.152117
  C      4.250374   -0.170647   -1.386719
  C      5.101839    0.067531   -0.392002
  C      4.771083   -0.049296    1.064789
  O      4.755198   -1.388689    1.533497
  C      4.671339   -0.053132   -2.817132
  C      0.093957    0.924354    1.259839
  C     -6.450881   -0.277388    0.560976
  H     -5.004285   -0.512433    2.891226
  H     -3.825778    0.757162    2.583310
  H     -5.532962    1.152640    2.774994
  H     -4.500340    0.294181   -1.086570
  H     -2.656099    1.454640    1.069718
  H     -2.607871    1.770523   -0.645240
  H     -1.931088   -0.882972    0.667675
  H     -1.956964   -0.614365   -1.061714
  H      0.016400   -0.213472   -2.008787
  H      2.147234    1.375307   -0.470872
  H      2.017872    1.159647   -2.193031
  H      2.515882   -1.288332   -1.899681
  H      2.698451   -1.032247   -0.183447
  H      6.120774    0.348810   -0.638719
  H      3.779769    0.347450    1.277222
  H      5.482554    0.539819    1.649445
  H      5.474534   -1.867357    1.120638
  H      4.025410    0.638347   -3.359046
  H      4.590077   -1.019287   -3.317198
  H      5.697173    0.296559   -2.909586
  H      1.172662    1.023373    1.335775
  H     -0.238696    0.287065    2.080275
  H     -0.343072    1.910041    1.424795
  H     -6.627696   -1.244196    1.035360
  H     -6.587170   -0.393913   -0.511957
  H     -7.220971    0.401753    0.931073

 Multiplicity           Mult            ....    1
 Number of Electrons    NEL             ....   92
 Basis Dimension        Dim             ....  338

ORBITAL ENERGIES
----------------

  NO   OCC          E(Eh)            E(eV)
   0   2.0000      -1.140911       -31.0458
   1   2.0000      -0.976153       -26.5625
   2   2.0000      -0.964800       -26.2535
   3   2.0000      -0.948734       -25.8164
   4   2.0000      -0.906626       -24.6705
   5   2.0000      -0.875927       -23.8352
   6   2.0000      -0.857391       -23.3308
   7   2.0000      -0.826639       -22.4940
   8   2.0000      -0.821832       -22.3632
   9   2.0000      -0.808575       -22.0025
  10   2.0000      -0.775264       -21.0960
  11   2.0000      -0.754822       -20.5397
  12   2.0000      -0.721324       -19.6282
  13   2.0000      -0.658546       -17.9200
  14   2.0000      -0.642869       -17.4934
  15   2.0000      -0.633420       -17.2362
  16   2.0000      -0.611950       -16.6520
  17   2.0000      -0.599677       -16.3181
  18   2.0000      -0.590118       -16.0579
  19   2.0000      -0.583476       -15.8772
  20   2.0000      -0.562918       -15.3178
  21   2.0000      -0.557476       -15.1697
  22   2.0000      -0.552257       -15.0277
  23   2.0000      -0.547487       -14.8979
  24   2.0000      -0.531553       -14.4643
  25   2.0000      -0.530599       -14.4383
  26   2.0000      -0.524771       -14.2798
  27   2.0000      -0.513304       -13.9677
  28   2.0000      -0.500361       -13.6155
  29   2.0000      -0.496863       -13.5203
  30   2.0000      -0.493299       -13.4233
  31   2.0000      -0.486889       -13.2489
  32   2.0000      -0.483324       -13.1519
  33   2.0000      -0.478210       -13.0128
  34   2.0000      -0.474987       -12.9250
  35   2.0000      -0.470502       -12.8030
  36   2.0000      -0.460652       -12.5350
  37   2.0000      -0.448433       -12.2025
  38   2.0000      -0.435391       -11.8476
  39   2.0000      -0.431688       -11.7468
  40   2.0000      -0.423756       -11.5310
  41   2.0000      -0.413211       -11.2440
  42   2.0000      -0.384355       -10.4588
  43   2.0000      -0.350830        -9.5466
  44   2.0000      -0.336007        -9.1432
  45   2.0000      -0.323832        -8.8119
  46   0.0000       0.068607         1.8669
  47   0.0000       0.082931         2.2567
  48   0.0000       0.088465         2.4072
  49   0.0000       0.094169         2.5625
  50   0.0000       0.096696         2.6312

MULLIKEN ATOMIC CHARGES
-----------------------
   0 C :   -0.050783
   1 C :   -0.071560
   2 C :   -0.026176
   3 C :   -0.061785
   4 C :   -0.035379
   5 C :   -0.063712
   6 C :   -0.023046
   7 C :   -0.058447
   8 C :   -0.046566
   9 C :   -0.071777
  10 C :   -0.027945
  11 C :    0.074632
  12 O :   -0.315537
  13 C :   -0.037575
  14 C :   -0.037544
  15 C :   -0.049728
  16 H :    0.037657
  17 H :    0.017251
  18 H :    0.040996
  19 H :    0.007748
  20 H :    0.016238
  21 H :    0.045144
  22 H :    0.036114
  23 H :    0.026086
  24 H :    0.009692
  25 H :    0.030006
  26 H :    0.037989
  27 H :    0.035561
  28 H :    0.055592
  29 H :    0.011989
  30 H :    0.026837
  31 H :    0.035913
  32 H :    0.147087
  33 H :    0.032073
  34 H :    0.041774
  35 H :    0.028109
  36 H :    0.002718
  37 H :    0.039042
  38 H :    0.047013
  39 H :    0.034608
  40 H :    0.025325
  41 H :    0.034368
Sum of atomic charges:   -0.0000000

LOEWDIN ATOMIC CHARGES
----------------------
   0 C :   -0.105919
   1 C :   -0.055231
   2 C :   -0.056126
   3 C :   -0.086056
   4 C :   -0.075812
   5 C :   -0.042894
   6 C :   -0.052789
   7 C :   -0.083576
   8 C :   -0.069839
   9 C :   -0.027219
  10 C :   -0.072050
  11 C :   -0.058204
  12 O :   -0.079369
  13 C :   -0.103825
  14 C :   -0.103761
  15 C :   -0.108014
  16 H :    0.050283
  17 H :    0.042933
  18 H :    0.050283
  19 H :    0.037499
  20 H :    0.038137
  21 H :    0.049800
  22 H :    0.047946
  23 H :    0.049364
  24 H :    0.037152
  25 H :    0.042472
  26 H :    0.046237
  27 H :    0.050595
  28 H :    0.054142
  29 H :    0.032619
  30 H :    0.048487
  31 H :    0.043363
  32 H :    0.023071
  33 H :    0.048356
  34 H :    0.050893
  35 H :    0.050258
  36 H :    0.042779
  37 H :    0.051450
  38 H :    0.048282
  39 H :    0.047427
  40 H :    0.048899
  41 H :    0.047959

  Mayer bond orders larger than 0.100000
B(  0-C ,  1-C ) :   1.0355 B(  0-C , 16-H ) :   0.9772 B(  0-C , 17-H ) :   0.9918
B(  0-C , 18-H ) :   0.9771 B(  1-C ,  2-C ) :   1.8899 B(  1-C , 15-C ) :   1.0306
B(  2-C ,  3-C ) :   1.0329 B(  2-C , 19-H ) :   0.9948 B(  3-C ,  4-C ) :   0.9529
B(  3-C , 20-H ) :   0.9956 B(  3-C , 21-H ) :   0.9851 B(  4-C ,  5-C ) :   1.0354
B(  4-C , 22-H ) :   0.9825 B(  4-C , 23-H ) :   0.9971 B(  5-C ,  6-C ) :   1.8982
B(  5-C , 14-C ) :   1.0284 B(  6-C ,  7-C ) :   1.0255 B(  6-C , 24-H ) :   0.9917
B(  7-C ,  8-C ) :   0.9489 B(  7-C , 25-H ) :   0.9948 B(  7-C , 26-H ) :   0.9896
B(  8-C ,  9-C ) :   1.0274 B(  8-C , 27-H ) :   0.9873 B(  8-C , 28-H ) :   0.9879
B(  9-C , 10-C ) :   1.8913 B(  9-C , 13-C ) :   1.0362 B( 10-C , 11-C ) :   1.0233
B( 10-C , 29-H ) :   0.9860 B( 11-C , 12-O ) :   0.9528 B( 11-C , 30-H ) :   1.0061
B( 11-C , 31-H ) :   0.9999 B( 12-O , 32-H ) :   1.0650 B( 13-C , 33-H ) :   0.9781
B( 13-C , 34-H ) :   0.9759 B( 13-C , 35-H ) :   0.9912 B( 14-C , 36-H ) :   0.9966
B( 14-C , 37-H ) :   0.9787 B( 14-C , 38-H ) :   0.9722 B( 15-C , 39-H ) :   0.9800
B( 15-C , 40-H ) :   0.9924 B( 15-C , 41-H ) :   0.9803

Dispersion correction           -0.046589640
FINAL SINGLE POINT ENERGY      -117.164993748307

DIPOLE MOMENT
-------------

Method             : SCF
Type of density    : Electron Density
Multiplicity       :   1
Irrep              :   0
Energy             :  -117.1184041078151949 Eh
Relativity type    :
Basis              : AO
                                X                 Y                 Z
Electronic contribution:      6.657343953      -0.791848606      -3.091230136
Nuclear contribution   :     -6.516667888       1.009761847       2.644342313
                        -----------------------------------------
Total Dipole Moment    :      0.140676065       0.217913241      -0.446887823
                        -----------------------------------------
Magnitude (a.u.)       :      0.516705586
Magnitude (Debye)      :      1.313361224

VIBRATIONAL FREQUENCIES
-----------------------

Scaling factor for frequencies =  1.000000000  (already applied!)

     0:       0.00 cm**-1
     1:       0.00 cm**-1
     2:       0.00 cm**-1
     3:       0.00 cm**-1
     4:       0.00 cm**-1
     5:       0.00 cm**-1
     6:      10.52 cm**-1
     7:      17.84 cm**-1
     8:      20.84 cm**-1
     9:      36.57 cm**-1
    10:      47.69 cm**-1
    11:      52.01 cm**-1
    12:      64.56 cm**-1
    13:      73.50 cm**-1
    14:     101.89 cm**-1
    15:     126.54 cm**-1
    16:     132.34 cm**-1
    17:     142.93 cm**-1
    18:     178.61 cm**-1
    19:     184.95 cm**-1
    20:     192.12 cm**-1
    21:     207.50 cm**-1
    22:     212.76 cm**-1
    23:     287.75 cm**-1
    24:     304.51 cm**-1
    25:     319.47 cm**-1
    26:     357.21 cm**-1
    27:     367.10 cm**-1
    28:     393.85 cm**-1
    29:     406.81 cm**-1
    30:     451.46 cm**-1
    31:     470.19 cm**-1
    32:     474.77 cm**-1
    33:     513.21 cm**-1
    34:     537.95 cm**-1
    35:     588.05 cm**-1
    36:     609.74 cm**-1
    37:     630.30 cm**-1
    38:     770.20 cm**-1
    39:     784.42 cm**-1
    40:     826.14 cm**-1
    41:     833.98 cm**-1
    42:     846.66 cm**-1
    43:     868.13 cm**-1
    44:     885.31 cm**-1
    45:     912.56 cm**-1
    46:     985.92 cm**-1
    47:     991.77 cm**-1
    48:    1004.23 cm**-1
    49:    1015.25 cm**-1
    50:    1033.29 cm**-1
    51:    1033.99 cm**-1
    52:    1041.51 cm**-1
    53:    1054.27 cm**-1
    54:    1063.27 cm**-1
    55:    1072.65 cm**-1
    56:    1091.50 cm**-1
    57:    1095.39 cm**-1
    58:    1102.49 cm**-1
    59:    1128.82 cm**-1
    60:    1131.98 cm**-1
    61:    1153.40 cm**-1
    62:    1166.94 cm**-1
    63:    1191.01 cm**-1
    64:    1207.03 cm**-1
    65:    1229.49 cm**-1
    66:    1270.33 cm**-1
    67:    1286.92 cm**-1
    68:    1295.99 cm**-1
    69:    1308.93 cm**-1
    70:    1319.33 cm**-1
    71:    1339.60 cm**-1
    72:    1346.81 cm**-1
    73:    1364.16 cm**-1
    74:    1389.53 cm**-1
    75:    1399.44 cm**-1
    76:    1411.85 cm**-1
    77:    1426.39 cm**-1
    78:    1431.34 cm**-1
    79:    1445.36 cm**-1
    80:    1450.40 cm**-1
    81:    1457.02 cm**-1
    82:    1458.34 cm**-1
    83:    1460.90 cm**-1
    84:    1502.23 cm**-1
    85:    1504.20 cm**-1
    86:    1509.90 cm**-1
    87:    1510.43 cm**-1
    88:    1513.84 cm**-1
    89:    1517.92 cm**-1
    90:    1520.27 cm**-1
    91:    1522.35 cm**-1
    92:    1527.06 cm**-1
    93:    1533.46 cm**-1
    94:    1539.68 cm**-1
    95:    1543.67 cm**-1
    96:    1560.96 cm**-1
    97:    1787.89 cm**-1
    98:    1801.20 cm**-1
    99:    1807.65 cm**-1
   100:    3088.07 cm**-1
   101:    3092.41 cm**-1
   102:    3093.62 cm**-1
   103:    3098.81 cm**-1
   104:    3099.67 cm**-1
   105:    3101.51 cm**-1
   106:    3104.57 cm**-1
   107:    3105.36 cm**-1
   108:    3109.41 cm**-1
   109:    3148.81 cm**-1
   110:    3166.82 cm**-1
   111:    3168.25 cm**-1
   112:    3169.48 cm**-1
   113:    3171.49 cm**-1
   114:    3173.03 cm**-1
   115:    3178.43 cm**-1
   116:    3179.74 cm**-1
   117:    3185.79 cm**-1
   118:    3197.15 cm**-1
   119:    3198.12 cm**-1
   120:    3207.04 cm**-1
   121:    3207.50 cm**-1
   122:    3211.46 cm**-1
   123:    3219.85 cm**-1
   124:    3225.22 cm**-1
   125:    3961.49 cm**-1

IR SPECTRUM
-----------

 Mode   freq       eps      Int      T**2         TX        TY        TZ
       cm**-1   L/(mol*cm) km/mol    a.u.
----------------------------------------------------------------------------
  6:     10.52   0.000107    0.54  0.003187  (-0.022076  0.051926 -0.001881)
  7:     17.84   0.000006    0.03  0.000110  (-0.005170 -0.009116 -0.000427)
  8:     20.84   0.000067    0.34  0.001008  (-0.026515 -0.006300 -0.016283)
  9:     36.57   0.000154    0.78  0.001316  (-0.019325  0.029083 -0.009818)
 10:     47.69   0.000111    0.56  0.000726  ( 0.020922 -0.011005  0.012929)
 11:     52.01   0.000220    1.11  0.001323  ( 0.013789 -0.033012  0.006534)
 12:     64.56   0.000041    0.21  0.000198  ( 0.001610 -0.013847  0.001968)
 13:     73.50   0.000090    0.45  0.000382  ( 0.014377  0.006801  0.011344)
 14:    101.89   0.000033    0.17  0.000101  (-0.000806  0.009258  0.003763)
 15:    126.54   0.000070    0.36  0.000174  ( 0.005116  0.012107 -0.000981)
 16:    132.34   0.000080    0.40  0.000188  ( 0.008636 -0.007321  0.007723)
 17:    142.93   0.001104    5.58  0.002410  (-0.033196  0.000859 -0.036154)
 18:    178.61   0.000990    5.00  0.001730  ( 0.024124  0.011351  0.031928)
 19:    184.95   0.009459   47.80  0.015959  ( 0.082987 -0.006182  0.095048)
 20:    192.12   0.000084    0.43  0.000137  ( 0.005711 -0.008219  0.006047)
 21:    207.50   0.015172   76.67  0.022817  (-0.092137 -0.018027 -0.118335)
 22:    212.76   0.002132   10.78  0.003127  (-0.034935 -0.007036 -0.043098)
 23:    287.75   0.001272    6.43  0.001379  (-0.018842  0.002817 -0.031879)
 24:    304.51   0.000016    0.08  0.000017  (-0.000102 -0.003941  0.001062)
 25:    319.47   0.000139    0.70  0.000136  (-0.006950 -0.009347 -0.000085)
 26:    357.21   0.000324    1.64  0.000283  ( 0.010186 -0.010790  0.007950)
 27:    367.10   0.000162    0.82  0.000138  (-0.000085  0.002449  0.011477)
 28:    393.85   0.000248    1.25  0.000197  ( 0.009936  0.007290  0.006697)
 29:    406.81   0.000617    3.12  0.000473  (-0.015034  0.013015  0.008833)
 30:    451.46   0.000784    3.96  0.000542  ( 0.007714 -0.017731 -0.012958)
 31:    470.19   0.001609    8.13  0.001068  ( 0.009032 -0.030444  0.007705)
 32:    474.77   0.000018    0.09  0.000012  (-0.002489 -0.001999 -0.001364)
 33:    513.21   0.000671    3.39  0.000408  ( 0.011622 -0.015165  0.006576)
 34:    537.95   0.000391    1.98  0.000227  (-0.004897  0.010499  0.009628)
 35:    588.05   0.000722    3.65  0.000383  ( 0.015540  0.009424  0.007266)
 36:    609.74   0.002039   10.30  0.001043  (-0.003436  0.017304  0.027059)
 37:    630.30   0.001991   10.06  0.000986  ( 0.027878 -0.013875  0.004036)
 38:    770.20   0.000065    0.33  0.000026  ( 0.002082 -0.004274 -0.001902)
 39:    784.42   0.000566    2.86  0.000225  ( 0.004308 -0.007768  0.012095)
 40:    826.14   0.002122   10.72  0.000802  ( 0.015694 -0.022681  0.006392)
 41:    833.98   0.000045    0.23  0.000017  ( 0.003639  0.000242  0.001929)
 42:    846.66   0.000508    2.57  0.000187  ( 0.003289 -0.008680 -0.010053)
 43:    868.13   0.003575   18.06  0.001285  ( 0.009880 -0.034260 -0.003678)
 44:    885.31   0.000816    4.12  0.000288  ( 0.007848 -0.014587  0.003632)
 45:    912.56   0.002621   13.25  0.000896  ( 0.009572 -0.026341  0.010530)
 46:    985.92   0.000087    0.44  0.000027  ( 0.005108  0.000176  0.001122)
 47:    991.77   0.001743    8.81  0.000548  ( 0.003881  0.019577  0.012254)
 48:   1004.23   0.000399    2.02  0.000124  (-0.007377  0.008221  0.001400)
 49:   1015.25   0.000188    0.95  0.000058  (-0.006276  0.004278  0.000389)
 50:   1033.29   0.000722    3.65  0.000218  ( 0.003726 -0.013756  0.003885)
 51:   1033.99   0.000558    2.82  0.000168  ( 0.011422 -0.005964 -0.001537)
 52:   1041.51   0.018072   91.33  0.005415  (-0.009733  0.063512 -0.035865)
 53:   1054.27   0.000262    1.33  0.000078  (-0.005915 -0.006491  0.000741)
 54:   1063.27   0.000644    3.25  0.000189  ( 0.004953 -0.012545 -0.002652)
 55:   1072.65   0.002313   11.69  0.000673  (-0.006787  0.023908 -0.007433)
 56:   1091.50   0.000724    3.66  0.000207  ( 0.008684 -0.011470  0.000100)
 57:   1095.39   0.003031   15.32  0.000863  (-0.008125  0.025301 -0.012542)
 58:   1102.49   0.000745    3.76  0.000211  ( 0.001111  0.010952 -0.009464)
 59:   1128.82   0.000212    1.07  0.000059  ( 0.003052 -0.006879  0.001412)
 60:   1131.98   0.001697    8.58  0.000468  ( 0.000770 -0.018995  0.010317)
 61:   1153.40   0.003421   17.29  0.000925  (-0.007879 -0.023117  0.018139)
 62:   1166.94   0.003419   17.28  0.000914  ( 0.027599 -0.001126 -0.012298)
 63:   1191.01   0.001008    5.09  0.000264  ( 0.015907  0.002951  0.001528)
 64:   1207.03   0.000164    0.83  0.000042  (-0.002453  0.001430  0.005865)
 65:   1229.49   0.002644   13.36  0.000671  ( 0.001772 -0.022036  0.013504)
 66:   1270.33   0.000738    3.73  0.000181  (-0.008332  0.006379 -0.008439)
 67:   1286.92   0.001074    5.43  0.000260  (-0.013433 -0.007311  0.005150)
 68:   1295.99   0.001080    5.46  0.000260  (-0.005715 -0.007787  0.012913)
 69:   1308.93   0.000096    0.49  0.000023  ( 0.002002 -0.002571  0.003518)
 70:   1319.33   0.000509    2.57  0.000120  ( 0.007303  0.006964 -0.004315)
 71:   1339.60   0.000091    0.46  0.000021  (-0.001284 -0.002003  0.003953)
 72:   1346.81   0.000243    1.23  0.000056  (-0.005144 -0.003120  0.004490)
 73:   1364.16   0.001374    6.95  0.000314  ( 0.001075  0.012407 -0.012623)
 74:   1389.53   0.000592    2.99  0.000133  (-0.002676  0.006964 -0.008792)
 75:   1399.44   0.000367    1.86  0.000082  ( 0.007956  0.002270 -0.003671)
 76:   1411.85   0.002589   13.08  0.000572  (-0.022887  0.004283 -0.005475)
 77:   1426.39   0.000824    4.16  0.000180  ( 0.005189 -0.010542  0.006496)
 78:   1431.34   0.000839    4.24  0.000183  (-0.008852  0.009977 -0.002234)
 79:   1445.36   0.002996   15.14  0.000647  (-0.016266  0.018103 -0.007381)
 80:   1450.40   0.000839    4.24  0.000181  (-0.009449 -0.006047 -0.007398)
 81:   1457.02   0.007944   40.15  0.001701  (-0.009369 -0.018820  0.035489)
 82:   1458.34   0.002273   11.49  0.000486  (-0.006127 -0.007417  0.019844)
 83:   1460.90   0.003246   16.41  0.000693  ( 0.004355  0.011593  0.023240)
 84:   1502.23   0.000075    0.38  0.000016  ( 0.002549 -0.002449  0.001738)
 85:   1504.20   0.000953    4.82  0.000198  (-0.011369  0.003579 -0.007458)
 86:   1509.90   0.000115    0.58  0.000024  ( 0.002867 -0.002602 -0.002980)
 87:   1510.43   0.001637    8.27  0.000338  ( 0.008277 -0.016116  0.003164)
 88:   1513.84   0.001812    9.16  0.000373  (-0.019009 -0.002339 -0.002582)
 89:   1517.92   0.000195    0.98  0.000040  (-0.003262  0.000593 -0.005391)
 90:   1520.27   0.005701   28.81  0.001170  (-0.007346 -0.033392  0.001158)
 91:   1522.35   0.002538   12.83  0.000520  ( 0.010791 -0.020094 -0.000212)
 92:   1527.06   0.001595    8.06  0.000326  ( 0.003836 -0.000372 -0.017640)
 93:   1533.46   0.001524    7.70  0.000310  (-0.008986  0.012023 -0.009206)
 94:   1539.68   0.001035    5.23  0.000210  (-0.011493 -0.007416 -0.004752)
 95:   1543.67   0.002154   10.88  0.000435  (-0.010286 -0.018153 -0.000068)
 96:   1560.96   0.000422    2.13  0.000084  (-0.002834 -0.003173  0.008135)
 97:   1787.89   0.006597   33.34  0.001151  ( 0.021266  0.000096  0.026441)
 98:   1801.20   0.001345    6.80  0.000233  (-0.004599  0.001721  0.014454)
 99:   1807.65   0.000487    2.46  0.000084  ( 0.006458  0.001939 -0.006215)
100:   3088.07   0.002245   11.35  0.000227  ( 0.006814  0.013431 -0.000273)
101:   3092.41   0.012079   61.04  0.001219  ( 0.012120  0.025286  0.020801)
102:   3093.62   0.006696   33.84  0.000675  (-0.024291 -0.007476 -0.005434)
103:   3098.81   0.010989   55.53  0.001107  ( 0.020015  0.008215 -0.025269)
104:   3099.67   0.001424    7.19  0.000143  (-0.003025 -0.002424  0.011327)
105:   3101.51   0.006865   34.69  0.000691  (-0.004752  0.004235  0.025500)
106:   3104.57   0.005024   25.39  0.000505  ( 0.005610  0.021707  0.001519)
107:   3105.36   0.003126   15.80  0.000314  ( 0.003570  0.008898  0.014905)
108:   3109.41   0.006922   34.98  0.000695  ( 0.010678  0.022559 -0.008469)
109:   3148.81   0.001223    6.18  0.000121  ( 0.001272  0.001186  0.010870)
110:   3166.82   0.000953    4.82  0.000094  (-0.001493  0.008906  0.003514)
111:   3168.25   0.000113    0.57  0.000011  (-0.000898  0.003077  0.000911)
112:   3169.48   0.004291   21.68  0.000422  (-0.007001  0.019325 -0.000017)
113:   3171.49   0.002299   11.62  0.000226  ( 0.014614 -0.003545  0.000282)
114:   3173.03   0.002619   13.24  0.000258  ( 0.000762 -0.009112  0.013191)
115:   3178.43   0.001709    8.64  0.000168  (-0.003341  0.008697  0.008999)
116:   3179.74   0.001586    8.01  0.000156  (-0.003363  0.011994 -0.000696)
117:   3185.79   0.001702    8.60  0.000167  (-0.007616  0.000960  0.010381)
118:   3197.15   0.000144    0.73  0.000014  (-0.003054  0.001689 -0.001380)
119:   3198.12   0.008027   40.57  0.000783  ( 0.012215  0.008713  0.023625)
120:   3207.04   0.004600   23.25  0.000448  ( 0.002187  0.001858  0.020962)
121:   3207.50   0.000241    1.22  0.000023  ( 0.000066 -0.000571 -0.004804)
122:   3211.46   0.007623   38.52  0.000741  ( 0.026229  0.005470 -0.004783)
123:   3219.85   0.004199   21.22  0.000407  ( 0.019811  0.003314  0.001871)
124:   3225.22   0.003261   16.48  0.000316  (-0.015850 -0.005598 -0.005740)
125:   3961.49   0.010557   53.35  0.000832  (-0.020581  0.019245  0.006139)

--------------------------
THERMOCHEMISTRY AT 298.15K
--------------------------

Temperature         ...   298.15 K
Pressure            ...     1.00 atm
Total Mass          ...   222.37 AMU
Quasi RRHO          ...     True
Cut-Off Frequency   ...     1.00 cm^-1

Throughout the following assumptions are being made:
  (1) The electronic state is orbitally nondegenerate
  (2) There are no thermally accessible electronically excited states
  (3) Hindered rotations indicated by low frequency modes are not
      treated as such but are treated as vibrations and this may
      cause some error
  (4) All equations used are the standard statistical mechanics
      equations for an ideal gas
  (5) All vibrations are strictly harmonic

freq.      10.52  E(vib)   ...       0.58
freq.      17.84  E(vib)   ...       0.57
freq.      20.84  E(vib)   ...       0.56
freq.      36.57  E(vib)   ...       0.54
freq.      47.69  E(vib)   ...       0.53
freq.      52.01  E(vib)   ...       0.52
freq.      64.56  E(vib)   ...       0.50
freq.      73.50  E(vib)   ...       0.49
freq.     101.89  E(vib)   ...       0.46
freq.     126.54  E(vib)   ...       0.43
freq.     132.34  E(vib)   ...       0.42
freq.     142.93  E(vib)   ...       0.41
freq.     178.61  E(vib)   ...       0.37
freq.     184.95  E(vib)   ...       0.37
freq.     192.12  E(vib)   ...       0.36
freq.     207.50  E(vib)   ...       0.34
freq.     212.76  E(vib)   ...       0.34
freq.     287.75  E(vib)   ...       0.27
freq.     304.51  E(vib)   ...       0.26
freq.     319.47  E(vib)   ...       0.25
freq.     357.21  E(vib)   ...       0.22
freq.     367.10  E(vib)   ...       0.22
freq.     393.85  E(vib)   ...       0.20
freq.     406.81  E(vib)   ...       0.19
freq.     451.46  E(vib)   ...       0.16
freq.     470.19  E(vib)   ...       0.16
freq.     474.77  E(vib)   ...       0.15
freq.     513.21  E(vib)   ...       0.13
freq.     537.95  E(vib)   ...       0.12
freq.     588.05  E(vib)   ...       0.10
freq.     609.74  E(vib)   ...       0.10
freq.     630.30  E(vib)   ...       0.09
freq.     770.20  E(vib)   ...       0.05
freq.     784.42  E(vib)   ...       0.05
freq.     826.14  E(vib)   ...       0.04
freq.     833.98  E(vib)   ...       0.04
freq.     846.66  E(vib)   ...       0.04
freq.     868.13  E(vib)   ...       0.04
freq.     885.31  E(vib)   ...       0.04
freq.     912.56  E(vib)   ...       0.03
freq.     985.92  E(vib)   ...       0.02
freq.     991.77  E(vib)   ...       0.02
freq.    1004.23  E(vib)   ...       0.02
freq.    1015.25  E(vib)   ...       0.02
freq.    1033.29  E(vib)   ...       0.02
freq.    1033.99  E(vib)   ...       0.02
freq.    1041.51  E(vib)   ...       0.02
freq.    1054.27  E(vib)   ...       0.02
freq.    1063.27  E(vib)   ...       0.02
freq.    1072.65  E(vib)   ...       0.02
freq.    1091.50  E(vib)   ...       0.02
freq.    1095.39  E(vib)   ...       0.02
freq.    1102.49  E(vib)   ...       0.02
freq.    1128.82  E(vib)   ...       0.01
freq.    1131.98  E(vib)   ...       0.01
freq.    1153.40  E(vib)   ...       0.01
freq.    1166.94  E(vib)   ...       0.01
freq.    1191.01  E(vib)   ...       0.01
freq.    1207.03  E(vib)   ...       0.01
freq.    1229.49  E(vib)   ...       0.01
freq.    1270.33  E(vib)   ...       0.01
freq.    1286.92  E(vib)   ...       0.01
freq.    1295.99  E(vib)   ...       0.01
freq.    1308.93  E(vib)   ...       0.01
freq.    1319.33  E(vib)   ...       0.01
freq.    1339.60  E(vib)   ...       0.01
freq.    1346.81  E(vib)   ...       0.01
freq.    1364.16  E(vib)   ...       0.01
freq.    1389.53  E(vib)   ...       0.00
freq.    1399.44  E(vib)   ...       0.00
freq.    1411.85  E(vib)   ...       0.00
freq.    1426.39  E(vib)   ...       0.00
freq.    1431.34  E(vib)   ...       0.00
freq.    1445.36  E(vib)   ...       0.00
freq.    1450.40  E(vib)   ...       0.00
freq.    1457.02  E(vib)   ...       0.00
freq.    1458.34  E(vib)   ...       0.00
freq.    1460.90  E(vib)   ...       0.00
freq.    1502.23  E(vib)   ...       0.00
freq.    1504.20  E(vib)   ...       0.00
freq.    1509.90  E(vib)   ...       0.00
freq.    1510.43  E(vib)   ...       0.00
freq.    1513.84  E(vib)   ...       0.00
freq.    1517.92  E(vib)   ...       0.00
freq.    1520.27  E(vib)   ...       0.00
freq.    1522.35  E(vib)   ...       0.00
freq.    1527.06  E(vib)   ...       0.00
freq.    1533.46  E(vib)   ...       0.00
freq.    1539.68  E(vib)   ...       0.00
freq.    1543.67  E(vib)   ...       0.00
freq.    1560.96  E(vib)   ...       0.00
freq.    1787.89  E(vib)   ...       0.00
freq.    1801.20  E(vib)   ...       0.00
freq.    1807.65  E(vib)   ...       0.00
freq.    3088.07  E(vib)   ...       0.00
freq.    3092.41  E(vib)   ...       0.00
freq.    3093.62  E(vib)   ...       0.00
freq.    3098.81  E(vib)   ...       0.00
freq.    3099.67  E(vib)   ...       0.00
freq.    3101.51  E(vib)   ...       0.00
freq.    3104.57  E(vib)   ...       0.00
freq.    3105.36  E(vib)   ...       0.00
freq.    3109.41  E(vib)   ...       0.00
freq.    3148.81  E(vib)   ...       0.00
freq.    3166.82  E(vib)   ...       0.00
freq.    3168.25  E(vib)   ...       0.00
freq.    3169.48  E(vib)   ...       0.00
freq.    3171.49  E(vib)   ...       0.00
freq.    3173.03  E(vib)   ...       0.00
freq.    3178.43  E(vib)   ...       0.00
freq.    3179.74  E(vib)   ...       0.00
freq.    3185.79  E(vib)   ...       0.00
freq.    3197.15  E(vib)   ...       0.00
freq.    3198.12  E(vib)   ...       0.00
freq.    3207.04  E(vib)   ...       0.00
freq.    3207.50  E(vib)   ...       0.00
freq.    3211.46  E(vib)   ...       0.00
freq.    3219.85  E(vib)   ...       0.00
freq.    3225.22  E(vib)   ...       0.00
freq.    3961.49  E(vib)   ...       0.00

------------
INNER ENERGY
------------

The inner energy is: U= E(el) + E(ZPE) + E(vib) + E(rot) + E(trans)
    E(el)   - is the total energy from the electronic structure calculation
              = E(kin-el) + E(nuc-el) + E(el-el) + E(nuc-nuc)
    E(ZPE)  - the the zero temperature vibrational energy from the frequency calculation
    E(vib)  - the the finite temperature correction to E(ZPE) due to population
              of excited vibrational states
    E(rot)  - is the rotational thermal energy
    E(trans)- is the translational thermal energy

Summary of contributions to the inner energy U:
Electronic energy                ...   -117.16499375 Eh
Zero point energy                ...      0.38720995 Eh     242.98 kcal/mol
Thermal vibrational correction   ...      0.01792500 Eh      11.25 kcal/mol
Thermal rotational correction    ...      0.00141627 Eh       0.89 kcal/mol
Thermal translational correction ...      0.00141627 Eh       0.89 kcal/mol
-----------------------------------------------------------------------
Total thermal energy                   -116.75702625 Eh

Rotational constants in cm-1:     0.039879     0.004669     0.004352

                             ****ORCA TERMINATED NORMALLY****
TOTAL RUN TIME: 0 days 0 hours 59 minutes 20 seconds 262 msec
