                         Program Version 6.0.1  -  RELEASE   -
|  1> ! wB97X-3c OPT FREQ TightSCF
|  2> %pal
|  3>   nprocs 40
|  4> end
|  5> * xyz 0 1
|  6> C     -1.214125     3.244849    -1.183210
|  7> C     -1.148403     2.020834    -0.311018
|  8> C      0.024303     1.346533    -0.211558
|  9> C      0.212552     0.154229     0.716105
| 10> C      1.284693    -0.890293     0.272960
| 11> C      0.706867    -1.816784    -0.804876
| 12> C     -0.479427    -2.594495    -0.236322
| 13> C     -1.497696    -1.700302     0.441284
| 14> C     -1.149192    -0.485079     0.958826
| 15> C     -2.174431     0.503237     1.459580
| 16> C     -2.428760     1.525687     0.347098
| 17> C     -2.897062    -2.249005     0.592050
| 18> C      2.726926    -0.377977    -0.068218
| 19> C      3.219210     0.717737     0.889954
| 20> C      2.963909     0.008562    -1.542906
| 21> H     -2.244989     3.656622    -1.215695
| 22> H     -0.534140     4.026755    -0.784000
| 23> H     -0.907093     2.987250    -2.219088
| 24> H      0.889834     1.800501    -0.667159
| 25> H      0.550204     0.570041     1.690624
| 26> H      1.437883    -1.530648     1.174217
| 27> H      1.476149    -2.547218    -1.138078
| 28> H      0.377202    -1.222894    -1.685785
| 29> H     -0.115041    -3.339976     0.503444
| 30> H     -0.959247    -3.151687    -1.069935
| 31> H     -1.768288     1.028298     2.351716
| 32> H     -3.129660     0.037748     1.775615
| 33> H     -3.067771     1.061144    -0.434796
| 34> H     -2.985072     2.386851     0.775975
| 35> H     -2.980200    -3.268325     0.159274
| 36> H     -3.621282    -1.593847     0.063723
| 37> H     -3.164430    -2.318500     1.667528
| 38> H      3.405456    -1.244107     0.108200
| 39> H      2.698719     1.679941     0.715611
| 40> H      3.059467     0.405107     1.943809
| 41> H      4.308217     0.885371     0.747408
| 42> H      3.979290     0.441671    -1.667669
| 43> H      2.228698     0.735660    -1.926585
| 44> H      2.916730    -0.893490    -2.188106
| 45> *
| 46>
| 47>                          ****END OF INPUT****
 Total Charge           Charge          ....    0
 Multiplicity           Mult            ....    1
 Number of Electrons    NEL             ....   84
Dispersion correction           -0.052032174
FINAL SINGLE POINT ENERGY       -99.922061143633
Dispersion correction             ... done (  0.1 sec)
Dispersion correction           -0.053077956
FINAL SINGLE POINT ENERGY       -99.934373860492
Dispersion correction             ... done (  0.1 sec)
Dispersion correction           -0.053003818
FINAL SINGLE POINT ENERGY       -99.935899541975
Dispersion correction             ... done (  0.1 sec)
FINAL SINGLE POINT ENERGY       -99.936418888605
FINAL SINGLE POINT ENERGY       -99.936938218396
FINAL SINGLE POINT ENERGY       -99.937178809418
FINAL SINGLE POINT ENERGY       -99.937877615351
FINAL SINGLE POINT ENERGY       -99.938554361450
FINAL SINGLE POINT ENERGY       -99.939600092942
FINAL SINGLE POINT ENERGY       -99.940725721001
FINAL SINGLE POINT ENERGY       -99.940990586477
FINAL SINGLE POINT ENERGY       -99.941227952380
FINAL SINGLE POINT ENERGY       -99.941433959007
FINAL SINGLE POINT ENERGY       -99.941482011351
FINAL SINGLE POINT ENERGY       -99.941525143722
FINAL SINGLE POINT ENERGY       -99.941567608334
Dispersion correction             ... done (  0.1 sec)
Dispersion correction           -0.052813035
FINAL SINGLE POINT ENERGY       -99.941578389315
Dispersion correction             ... done (  0.1 sec)
Dispersion correction           -0.052807838
FINAL SINGLE POINT ENERGY       -99.941584660287
Dispersion correction             ... done (  0.1 sec)
                    ***********************HURRAY********************

CARTESIAN COORDINATES (ANGSTROEM)
---------------------------------
  C     -1.205981    3.246468   -1.202555
  C     -1.094957    2.029182   -0.341839
  C      0.051426    1.376234   -0.186168
  C      0.216830    0.148484    0.675842
  C      1.250073   -0.891957    0.226181
  C      0.647636   -1.787979   -0.838295
  C     -0.506774   -2.567973   -0.247285
  C     -1.473753   -1.694858    0.502737
  C     -1.147017   -0.463616    0.891160
  C     -2.108806    0.552196    1.424821
  C     -2.359683    1.591014    0.338379
  C     -2.814461   -2.328598    0.715112
  C      2.669829   -0.405453   -0.116311
  C      3.211418    0.568482    0.918581
  C      2.890114    0.115541   -1.531460
  H     -1.965875    3.105536   -1.973444
  H     -1.509619    4.113920   -0.614186
  H     -0.263542    3.479751   -1.693725
  H      0.930497    1.774548   -0.670982
  H      0.552413    0.503414    1.657695
  H      1.386633   -1.524574    1.111207
  H      1.399495   -2.473002   -1.235457
  H      0.288515   -1.183099   -1.674448
  H     -0.129285   -3.351885    0.418257
  H     -1.053658   -3.090635   -1.036092
  H     -1.668537    1.048270    2.293481
  H     -3.050096    0.118157    1.749517
  H     -3.043237    1.185456   -0.414025
  H     -2.861344    2.465532    0.760161
  H     -2.687905   -3.345797    1.090082
  H     -3.356891   -2.409463   -0.229050
  H     -3.443708   -1.794773    1.419936
  H      3.282335   -1.310701   -0.044001
  H      2.696547    1.528528    0.882762
  H      3.103954    0.172376    1.929015
  H      4.271192    0.759568    0.748941
  H      3.958280    0.246848   -1.707533
  H      2.416499    1.076617   -1.715460
  H      2.521441   -0.581760   -2.281556

 Multiplicity           Mult            ....    1
 Number of Electrons    NEL             ....   84
 Basis Dimension        Dim             ....  315

ORBITAL ENERGIES
----------------

  NO   OCC          E(Eh)            E(eV)
   0   2.0000      -1.003896       -27.3174
   1   2.0000      -0.959810       -26.1178
   2   2.0000      -0.941528       -25.6203
   3   2.0000      -0.897026       -24.4093
   4   2.0000      -0.888632       -24.1809
   5   2.0000      -0.865153       -23.5420
   6   2.0000      -0.816745       -22.2248
   7   2.0000      -0.809818       -22.0363
   8   2.0000      -0.807074       -21.9616
   9   2.0000      -0.754785       -20.5387
  10   2.0000      -0.736226       -20.0337
  11   2.0000      -0.720497       -19.6057
  12   2.0000      -0.670393       -18.2423
  13   2.0000      -0.650606       -17.7039
  14   2.0000      -0.595080       -16.1930
  15   2.0000      -0.587497       -15.9866
  16   2.0000      -0.583640       -15.8817
  17   2.0000      -0.578074       -15.7302
  18   2.0000      -0.561178       -15.2704
  19   2.0000      -0.548779       -14.9330
  20   2.0000      -0.540147       -14.6981
  21   2.0000      -0.538488       -14.6530
  22   2.0000      -0.527654       -14.3582
  23   2.0000      -0.521847       -14.2002
  24   2.0000      -0.513126       -13.9629
  25   2.0000      -0.503060       -13.6890
  26   2.0000      -0.493538       -13.4299
  27   2.0000      -0.489582       -13.3222
  28   2.0000      -0.485950       -13.2234
  29   2.0000      -0.476810       -12.9747
  30   2.0000      -0.464230       -12.6323
  31   2.0000      -0.459340       -12.4993
  32   2.0000      -0.455323       -12.3900
  33   2.0000      -0.452050       -12.3009
  34   2.0000      -0.447762       -12.1842
  35   2.0000      -0.433121       -11.7858
  36   2.0000      -0.422309       -11.4916
  37   2.0000      -0.407422       -11.0865
  38   2.0000      -0.398794       -10.8517
  39   2.0000      -0.377246       -10.2654
  40   2.0000      -0.327392        -8.9088
  41   2.0000      -0.315862        -8.5950
  42   0.0000       0.082374         2.2415
  43   0.0000       0.084853         2.3090
  44   0.0000       0.093452         2.5430
  45   0.0000       0.097812         2.6616
  46   0.0000       0.101780         2.7696

MULLIKEN ATOMIC CHARGES
-----------------------
   0 C :   -0.051449
   1 C :   -0.052517
   2 C :    0.063453
   3 C :   -0.108477
   4 C :   -0.074583
   5 C :   -0.018406
   6 C :   -0.044647
   7 C :   -0.049665
   8 C :   -0.050501
   9 C :   -0.024271
  10 C :   -0.046760
  11 C :   -0.054792
  12 C :   -0.095841
  13 C :   -0.038649
  14 C :   -0.028334
  15 H :    0.036069
  16 H :    0.036829
  17 H :    0.029478
  18 H :   -0.044506
  19 H :    0.047338
  20 H :    0.033842
  21 H :    0.029851
  22 H :    0.041491
  23 H :    0.035689
  24 H :    0.029442
  25 H :    0.032879
  26 H :    0.023594
  27 H :    0.038765
  28 H :    0.031266
  29 H :    0.032370
  30 H :    0.038733
  31 H :    0.021673
  32 H :    0.029516
  33 H :    0.028227
  34 H :    0.025497
  35 H :    0.027734
  36 H :    0.028252
  37 H :    0.017644
  38 H :    0.023763
Sum of atomic charges:    0.0000000

LOEWDIN ATOMIC CHARGES
----------------------
   0 C :   -0.108764
   1 C :   -0.045306
   2 C :   -0.038300
   3 C :   -0.066138
   4 C :   -0.058848
   5 C :   -0.076708
   6 C :   -0.081242
   7 C :   -0.042691
   8 C :   -0.029248
   9 C :   -0.071611
  10 C :   -0.073452
  11 C :   -0.108203
  12 C :   -0.078135
  13 C :   -0.108575
  14 C :   -0.105153
  15 H :    0.048874
  16 H :    0.047354
  17 H :    0.049257
  18 H :    0.024389
  19 H :    0.052880
  20 H :    0.053742
  21 H :    0.044866
  22 H :    0.046065
  23 H :    0.046535
  24 H :    0.049751
  25 H :    0.048982
  26 H :    0.041620
  27 H :    0.049380
  28 H :    0.048935
  29 H :    0.050121
  30 H :    0.047354
  31 H :    0.041722
  32 H :    0.049965
  33 H :    0.041790
  34 H :    0.044097
  35 H :    0.044059
  36 H :    0.044871
  37 H :    0.032770
  38 H :    0.042996

  Mayer bond orders larger than 0.100000
B(  0-C ,  1-C ) :   1.0350 B(  0-C , 15-H ) :   0.9776 B(  0-C , 16-H ) :   0.9794
B(  0-C , 17-H ) :   0.9895 B(  1-C ,  2-C ) :   1.8960 B(  1-C , 10-C ) :   1.0119
B(  2-C ,  3-C ) :   1.0029 B(  2-C , 18-H ) :   0.9937 B(  3-C ,  4-C ) :   0.9968
B(  3-C ,  8-C ) :   1.0308 B(  3-C , 19-H ) :   0.9728 B(  4-C ,  5-C ) :   0.9764
B(  4-C , 12-C ) :   1.0028 B(  4-C , 20-H ) :   0.9958 B(  5-C ,  6-C ) :   1.0007
B(  5-C , 21-H ) :   0.9969 B(  5-C , 22-H ) :   0.9854 B(  6-C ,  7-C ) :   1.0073
B(  6-C , 23-H ) :   0.9799 B(  6-C , 24-H ) :   0.9887 B(  7-C ,  8-C ) :   1.8981
B(  7-C , 11-C ) :   1.0306 B(  8-C ,  9-C ) :   1.0176 B(  9-C , 10-C ) :   0.9774
B(  9-C , 25-H ) :   0.9853 B(  9-C , 26-H ) :   0.9951 B( 10-C , 27-H ) :   0.9793
B( 10-C , 28-H ) :   0.9875 B( 11-C , 29-H ) :   0.9809 B( 11-C , 30-H ) :   0.9763
B( 11-C , 31-H ) :   0.9903 B( 12-C , 13-C ) :   1.0014 B( 12-C , 14-C ) :   0.9942
B( 12-C , 32-H ) :   0.9975 B( 13-C , 33-H ) :   0.9902 B( 13-C , 34-H ) :   0.9931
B( 13-C , 35-H ) :   0.9938 B( 14-C , 36-H ) :   0.9925 B( 14-C , 37-H ) :   0.9900
B( 14-C , 38-H ) :   0.9926

Dispersion correction           -0.052809494
FINAL SINGLE POINT ENERGY       -99.941585185685

DIPOLE MOMENT
-------------

Method             : SCF
Type of density    : Electron Density
Multiplicity       :   1
Irrep              :   0
Energy             :   -99.8887756913630938 Eh
Relativity type    :
Basis              : AO
                                X                 Y                 Z
Electronic contribution:     -5.214166085      -1.502567794       3.518416534
Nuclear contribution   :      5.105068651       1.475698245      -3.536218577
                        -----------------------------------------
Total Dipole Moment    :     -0.109097434      -0.026869548      -0.017802043
                        -----------------------------------------
Magnitude (a.u.)       :      0.113759112
Magnitude (Debye)      :      0.289152683

VIBRATIONAL FREQUENCIES
-----------------------

Scaling factor for frequencies =  1.000000000  (already applied!)

     0:       0.00 cm**-1
     1:       0.00 cm**-1
     2:       0.00 cm**-1
     3:       0.00 cm**-1
     4:       0.00 cm**-1
     5:       0.00 cm**-1
     6:      55.39 cm**-1
     7:      76.68 cm**-1
     8:      96.81 cm**-1
     9:     112.04 cm**-1
    10:     137.14 cm**-1
    11:     141.89 cm**-1
    12:     174.62 cm**-1
    13:     191.57 cm**-1
    14:     199.74 cm**-1
    15:     227.35 cm**-1
    16:     262.02 cm**-1
    17:     274.37 cm**-1
    18:     282.93 cm**-1
    19:     334.09 cm**-1
    20:     360.39 cm**-1
    21:     366.23 cm**-1
    22:     392.93 cm**-1
    23:     407.05 cm**-1
    24:     441.24 cm**-1
    25:     452.48 cm**-1
    26:     462.25 cm**-1
    27:     481.95 cm**-1
    28:     529.30 cm**-1
    29:     557.51 cm**-1
    30:     635.93 cm**-1
    31:     669.34 cm**-1
    32:     703.11 cm**-1
    33:     753.45 cm**-1
    34:     802.33 cm**-1
    35:     827.80 cm**-1
    36:     870.34 cm**-1
    37:     892.69 cm**-1
    38:     905.04 cm**-1
    39:     932.69 cm**-1
    40:     950.40 cm**-1
    41:     980.99 cm**-1
    42:     993.93 cm**-1
    43:    1005.89 cm**-1
    44:    1020.12 cm**-1
    45:    1034.56 cm**-1
    46:    1051.35 cm**-1
    47:    1054.80 cm**-1
    48:    1062.86 cm**-1
    49:    1081.33 cm**-1
    50:    1093.42 cm**-1
    51:    1103.30 cm**-1
    52:    1134.85 cm**-1
    53:    1151.45 cm**-1
    54:    1177.40 cm**-1
    55:    1193.93 cm**-1
    56:    1207.53 cm**-1
    57:    1220.03 cm**-1
    58:    1225.57 cm**-1
    59:    1243.20 cm**-1
    60:    1259.49 cm**-1
    61:    1278.80 cm**-1
    62:    1295.32 cm**-1
    63:    1302.50 cm**-1
    64:    1339.37 cm**-1
    65:    1354.54 cm**-1
    66:    1358.27 cm**-1
    67:    1385.04 cm**-1
    68:    1393.10 cm**-1
    69:    1405.92 cm**-1
    70:    1409.74 cm**-1
    71:    1431.29 cm**-1
    72:    1434.07 cm**-1
    73:    1440.84 cm**-1
    74:    1443.73 cm**-1
    75:    1452.40 cm**-1
    76:    1455.82 cm**-1
    77:    1459.28 cm**-1
    78:    1463.57 cm**-1
    79:    1502.68 cm**-1
    80:    1507.26 cm**-1
    81:    1510.45 cm**-1
    82:    1513.99 cm**-1
    83:    1517.36 cm**-1
    84:    1518.82 cm**-1
    85:    1522.57 cm**-1
    86:    1524.49 cm**-1
    87:    1527.71 cm**-1
    88:    1537.10 cm**-1
    89:    1538.60 cm**-1
    90:    1541.19 cm**-1
    91:    1791.57 cm**-1
    92:    1812.89 cm**-1
    93:    3044.22 cm**-1
    94:    3056.80 cm**-1
    95:    3070.10 cm**-1
    96:    3071.22 cm**-1
    97:    3080.68 cm**-1
    98:    3091.13 cm**-1
    99:    3092.72 cm**-1
   100:    3094.19 cm**-1
   101:    3095.13 cm**-1
   102:    3100.02 cm**-1
   103:    3110.55 cm**-1
   104:    3121.75 cm**-1
   105:    3131.02 cm**-1
   106:    3147.45 cm**-1
   107:    3162.26 cm**-1
   108:    3167.74 cm**-1
   109:    3180.82 cm**-1
   110:    3187.28 cm**-1
   111:    3189.27 cm**-1
   112:    3192.86 cm**-1
   113:    3202.57 cm**-1
   114:    3212.99 cm**-1
   115:    3227.54 cm**-1
   116:    3272.67 cm**-1

IR SPECTRUM
-----------

 Mode   freq       eps      Int      T**2         TX        TY        TZ
       cm**-1   L/(mol*cm) km/mol    a.u.
----------------------------------------------------------------------------
  6:     55.39   0.000007    0.04  0.000040  (-0.001941  0.001754 -0.005794)
  7:     76.68   0.000005    0.02  0.000019  (-0.000725  0.002837  0.003163)
  8:     96.81   0.000132    0.67  0.000425  (-0.002463 -0.001051 -0.020450)
  9:    112.04   0.000056    0.28  0.000155  ( 0.008295 -0.002208  0.009031)
 10:    137.14   0.000016    0.08  0.000037  (-0.003247  0.003445  0.003757)
 11:    141.89   0.000005    0.03  0.000012  ( 0.002703 -0.001749 -0.001298)
 12:    174.62   0.000102    0.51  0.000182  (-0.003243 -0.012428 -0.004088)
 13:    191.57   0.000004    0.02  0.000006  (-0.001409  0.001122 -0.001641)
 14:    199.74   0.000008    0.04  0.000013  (-0.000703  0.002613  0.002279)
 15:    227.35   0.000020    0.10  0.000027  (-0.001346 -0.002345 -0.004451)
 16:    262.02   0.000062    0.31  0.000074  ( 0.007932 -0.001459  0.003024)
 17:    274.37   0.000029    0.14  0.000032  (-0.003781 -0.002332 -0.003561)
 18:    282.93   0.000134    0.68  0.000148  ( 0.000085  0.012018  0.001849)
 19:    334.09   0.000106    0.54  0.000099  (-0.004337  0.008341  0.003284)
 20:    360.39   0.000302    1.52  0.000261  (-0.006459  0.002140 -0.014657)
 21:    366.23   0.000031    0.16  0.000027  (-0.000373  0.004142 -0.003060)
 22:    392.93   0.000552    2.79  0.000439  ( 0.008578 -0.005033  0.018432)
 23:    407.05   0.000188    0.95  0.000144  ( 0.000091 -0.000585  0.011993)
 24:    441.24   0.000593    3.00  0.000420  (-0.002175 -0.019018 -0.007296)
 25:    452.48   0.000131    0.66  0.000090  (-0.003330  0.006142  0.006421)
 26:    462.25   0.000119    0.60  0.000080  (-0.006008 -0.002799 -0.006038)
 27:    481.95   0.000327    1.65  0.000212  ( 0.002301  0.003535 -0.013919)
 28:    529.30   0.000027    0.14  0.000016  ( 0.000535 -0.003708 -0.001385)
 29:    557.51   0.000151    0.76  0.000085  ( 0.007446 -0.004285 -0.003294)
 30:    635.93   0.000192    0.97  0.000094  (-0.001281  0.007638  0.005833)
 31:    669.34   0.000212    1.07  0.000099  ( 0.009349 -0.001825  0.002863)
 32:    703.11   0.000024    0.12  0.000011  (-0.000865  0.000048  0.003138)
 33:    753.45   0.000106    0.54  0.000044  ( 0.001362  0.005487  0.003448)
 34:    802.33   0.000011    0.06  0.000004  ( 0.001652  0.001116 -0.000530)
 35:    827.80   0.000155    0.78  0.000059  (-0.006919  0.002800 -0.001684)
 36:    870.34   0.001489    7.53  0.000534  (-0.003864 -0.010976 -0.019963)
 37:    892.69   0.000406    2.05  0.000142  ( 0.004092 -0.011161  0.000831)
 38:    905.04   0.000507    2.56  0.000175  ( 0.001259 -0.009339 -0.009267)
 39:    932.69   0.000683    3.45  0.000229  (-0.004357  0.010501  0.009970)
 40:    950.40   0.000112    0.56  0.000037  (-0.004165 -0.001172 -0.004239)
 41:    980.99   0.000719    3.63  0.000229  ( 0.014777 -0.003157 -0.000620)
 42:    993.93   0.000097    0.49  0.000031  (-0.003894 -0.000511 -0.003895)
 43:   1005.89   0.000548    2.77  0.000170  ( 0.009526  0.008839  0.001110)
 44:   1020.12   0.000055    0.28  0.000017  ( 0.003812 -0.000578  0.001411)
 45:   1034.56   0.000434    2.19  0.000131  (-0.010028 -0.003421  0.004320)
 46:   1051.35   0.000075    0.38  0.000022  (-0.004711  0.000041  0.000120)
 47:   1054.80   0.000548    2.77  0.000162  ( 0.008482  0.007342  0.006026)
 48:   1062.86   0.000334    1.69  0.000098  (-0.009225 -0.001039 -0.003432)
 49:   1081.33   0.000232    1.17  0.000067  (-0.006658  0.001482  0.004532)
 50:   1093.42   0.000828    4.18  0.000236  (-0.013946 -0.003400 -0.005503)
 51:   1103.30   0.002835   14.32  0.000802  ( 0.021754 -0.017262 -0.005526)
 52:   1134.85   0.000916    4.63  0.000252  (-0.012904 -0.009245  0.000122)
 53:   1151.45   0.000186    0.94  0.000050  ( 0.002683  0.006505 -0.000932)
 54:   1177.40   0.001077    5.44  0.000285  ( 0.003314 -0.015575 -0.005640)
 55:   1193.93   0.000403    2.04  0.000105  ( 0.007655  0.004814  0.004847)
 56:   1207.53   0.000945    4.78  0.000244  ( 0.014873  0.004767 -0.000500)
 57:   1220.03   0.000729    3.68  0.000186  ( 0.003882 -0.010098 -0.008329)
 58:   1225.57   0.000467    2.36  0.000119  ( 0.010664 -0.000918 -0.002090)
 59:   1243.20   0.000101    0.51  0.000025  ( 0.003390  0.003674 -0.000618)
 60:   1259.49   0.000340    1.72  0.000084  (-0.001746 -0.008193 -0.003739)
 61:   1278.80   0.000431    2.18  0.000105  (-0.002290 -0.007659  0.006428)
 62:   1295.32   0.001469    7.43  0.000354  (-0.009175  0.015389  0.005746)
 63:   1302.50   0.000636    3.21  0.000152  ( 0.005583 -0.009474  0.005610)
 64:   1339.37   0.000560    2.83  0.000130  ( 0.011379  0.000928 -0.000287)
 65:   1354.54   0.000236    1.19  0.000054  ( 0.001568 -0.006882  0.002122)
 66:   1358.27   0.000250    1.26  0.000057  ( 0.004485 -0.005825  0.001824)
 67:   1385.04   0.000075    0.38  0.000017  ( 0.003365 -0.002082 -0.001084)
 68:   1393.10   0.000131    0.66  0.000029  (-0.004859 -0.002158  0.001036)
 69:   1405.92   0.000316    1.60  0.000070  (-0.002901 -0.007789  0.001032)
 70:   1409.74   0.000018    0.09  0.000004  ( 0.001781  0.000172  0.000902)
 71:   1431.29   0.000271    1.37  0.000059  ( 0.001972 -0.007394  0.000732)
 72:   1434.07   0.000319    1.61  0.000069  ( 0.006232  0.002094  0.005113)
 73:   1440.84   0.000566    2.86  0.000123  (-0.009992 -0.004773 -0.000015)
 74:   1443.73   0.002801   14.16  0.000605  (-0.004552 -0.007041 -0.023134)
 75:   1452.40   0.000757    3.82  0.000163  (-0.006653 -0.003902  0.010153)
 76:   1455.82   0.001418    7.16  0.000304  ( 0.016753 -0.000542  0.004793)
 77:   1459.28   0.001762    8.91  0.000377  ( 0.012503  0.012098 -0.008613)
 78:   1463.57   0.002479   12.53  0.000528  (-0.015077 -0.008825  0.014943)
 79:   1502.68   0.000752    3.80  0.000156  (-0.009882 -0.001617 -0.007473)
 80:   1507.26   0.001626    8.22  0.000337  ( 0.002170 -0.011741  0.013935)
 81:   1510.45   0.001850    9.35  0.000382  (-0.000984 -0.014374 -0.013216)
 82:   1513.99   0.000993    5.02  0.000205  (-0.006718  0.012393 -0.002422)
 83:   1517.36   0.000094    0.47  0.000019  ( 0.000224 -0.000316  0.004375)
 84:   1518.82   0.000107    0.54  0.000022  ( 0.000243  0.001476  0.004442)
 85:   1522.57   0.002577   13.02  0.000528  (-0.022848 -0.002307  0.000853)
 86:   1524.49   0.001150    5.81  0.000235  ( 0.000829 -0.010835 -0.010829)
 87:   1527.71   0.000423    2.14  0.000086  ( 0.005817 -0.005608  0.004599)
 88:   1537.10   0.003693   18.66  0.000750  ( 0.012337 -0.004729 -0.023983)
 89:   1538.60   0.001560    7.88  0.000316  (-0.002415 -0.016040  0.007302)
 90:   1541.19   0.002067   10.45  0.000419  ( 0.019938 -0.004411  0.001276)
 91:   1791.57   0.001177    5.95  0.000205  ( 0.013690 -0.003600  0.002157)
 92:   1812.89   0.000014    0.07  0.000002  ( 0.000660  0.000789 -0.001129)
 93:   3044.22   0.001205    6.09  0.000124  ( 0.006453  0.008638 -0.002693)
 94:   3056.80   0.004854   24.53  0.000496  ( 0.003135  0.009170  0.020040)
 95:   3070.10   0.002960   14.96  0.000301  ( 0.014208 -0.004249  0.008996)
 96:   3071.22   0.015367   77.66  0.001561  (-0.004814  0.037841 -0.010311)
 97:   3080.68   0.006932   35.03  0.000702  (-0.023816  0.010716 -0.004487)
 98:   3091.13   0.005468   27.63  0.000552  (-0.014067  0.007419  0.017293)
 99:   3092.72   0.012084   61.07  0.001219  ( 0.010258 -0.030139  0.014345)
100:   3094.19   0.009308   47.04  0.000939  (-0.020468 -0.020649 -0.009663)
101:   3095.13   0.006453   32.61  0.000651  (-0.014042 -0.010222 -0.018681)
102:   3100.02   0.005438   27.48  0.000547  (-0.006842  0.001418  0.022329)
103:   3110.55   0.006609   33.40  0.000663  ( 0.017513  0.005307 -0.018116)
104:   3121.75   0.005657   28.59  0.000566  ( 0.007286  0.011912  0.019249)
105:   3131.02   0.006683   33.77  0.000666  (-0.005950  0.019229  0.016153)
106:   3147.45   0.006703   33.88  0.000665  (-0.016669  0.018675 -0.006165)
107:   3162.26   0.002488   12.57  0.000246  ( 0.004661 -0.008781  0.012111)
108:   3167.74   0.002310   11.67  0.000228  ( 0.003573  0.009292  0.011332)
109:   3180.82   0.004498   22.73  0.000441  ( 0.015113  0.006961 -0.012821)
110:   3187.28   0.002155   10.89  0.000211  (-0.006672  0.012475 -0.003285)
111:   3189.27   0.006998   35.36  0.000685  (-0.024895  0.002275 -0.007731)
112:   3192.86   0.003604   18.21  0.000352  (-0.016029 -0.009248  0.003133)
113:   3202.57   0.002608   13.18  0.000254  (-0.014624 -0.001795  0.006083)
114:   3212.99   0.003355   16.96  0.000326  (-0.008482  0.015141  0.004969)
115:   3227.54   0.003941   19.92  0.000381  ( 0.014424 -0.005003 -0.012163)
116:   3272.67   0.003704   18.72  0.000353  ( 0.008541  0.015643 -0.005962)

--------------------------
THERMOCHEMISTRY AT 298.15K
--------------------------

Temperature         ...   298.15 K
Pressure            ...     1.00 atm
Total Mass          ...   204.36 AMU
Quasi RRHO          ...     True
Cut-Off Frequency   ...     1.00 cm^-1

Throughout the following assumptions are being made:
  (1) The electronic state is orbitally nondegenerate
  (2) There are no thermally accessible electronically excited states
  (3) Hindered rotations indicated by low frequency modes are not
      treated as such but are treated as vibrations and this may
      cause some error
  (4) All equations used are the standard statistical mechanics
      equations for an ideal gas
  (5) All vibrations are strictly harmonic

freq.      55.39  E(vib)   ...       0.52
freq.      76.68  E(vib)   ...       0.49
freq.      96.81  E(vib)   ...       0.46
freq.     112.04  E(vib)   ...       0.45
freq.     137.14  E(vib)   ...       0.42
freq.     141.89  E(vib)   ...       0.41
freq.     174.62  E(vib)   ...       0.38
freq.     191.57  E(vib)   ...       0.36
freq.     199.74  E(vib)   ...       0.35
freq.     227.35  E(vib)   ...       0.33
freq.     262.02  E(vib)   ...       0.29
freq.     274.37  E(vib)   ...       0.28
freq.     282.93  E(vib)   ...       0.28
freq.     334.09  E(vib)   ...       0.24
freq.     360.39  E(vib)   ...       0.22
freq.     366.23  E(vib)   ...       0.22
freq.     392.93  E(vib)   ...       0.20
freq.     407.05  E(vib)   ...       0.19
freq.     441.24  E(vib)   ...       0.17
freq.     452.48  E(vib)   ...       0.16
freq.     462.25  E(vib)   ...       0.16
freq.     481.95  E(vib)   ...       0.15
freq.     529.30  E(vib)   ...       0.13
freq.     557.51  E(vib)   ...       0.12
freq.     635.93  E(vib)   ...       0.09
freq.     669.34  E(vib)   ...       0.08
freq.     703.11  E(vib)   ...       0.07
freq.     753.45  E(vib)   ...       0.06
freq.     802.33  E(vib)   ...       0.05
freq.     827.80  E(vib)   ...       0.04
freq.     870.34  E(vib)   ...       0.04
freq.     892.69  E(vib)   ...       0.03
freq.     905.04  E(vib)   ...       0.03
freq.     932.69  E(vib)   ...       0.03
freq.     950.40  E(vib)   ...       0.03
freq.     980.99  E(vib)   ...       0.02
freq.     993.93  E(vib)   ...       0.02
freq.    1005.89  E(vib)   ...       0.02
freq.    1020.12  E(vib)   ...       0.02
freq.    1034.56  E(vib)   ...       0.02
freq.    1051.35  E(vib)   ...       0.02
freq.    1054.80  E(vib)   ...       0.02
freq.    1062.86  E(vib)   ...       0.02
freq.    1081.33  E(vib)   ...       0.02
freq.    1093.42  E(vib)   ...       0.02
freq.    1103.30  E(vib)   ...       0.02
freq.    1134.85  E(vib)   ...       0.01
freq.    1151.45  E(vib)   ...       0.01
freq.    1177.40  E(vib)   ...       0.01
freq.    1193.93  E(vib)   ...       0.01
freq.    1207.53  E(vib)   ...       0.01
freq.    1220.03  E(vib)   ...       0.01
freq.    1225.57  E(vib)   ...       0.01
freq.    1243.20  E(vib)   ...       0.01
freq.    1259.49  E(vib)   ...       0.01
freq.    1278.80  E(vib)   ...       0.01
freq.    1295.32  E(vib)   ...       0.01
freq.    1302.50  E(vib)   ...       0.01
freq.    1339.37  E(vib)   ...       0.01
freq.    1354.54  E(vib)   ...       0.01
freq.    1358.27  E(vib)   ...       0.01
freq.    1385.04  E(vib)   ...       0.00
freq.    1393.10  E(vib)   ...       0.00
freq.    1405.92  E(vib)   ...       0.00
freq.    1409.74  E(vib)   ...       0.00
freq.    1431.29  E(vib)   ...       0.00
freq.    1434.07  E(vib)   ...       0.00
freq.    1440.84  E(vib)   ...       0.00
freq.    1443.73  E(vib)   ...       0.00
freq.    1452.40  E(vib)   ...       0.00
freq.    1455.82  E(vib)   ...       0.00
freq.    1459.28  E(vib)   ...       0.00
freq.    1463.57  E(vib)   ...       0.00
freq.    1502.68  E(vib)   ...       0.00
freq.    1507.26  E(vib)   ...       0.00
freq.    1510.45  E(vib)   ...       0.00
freq.    1513.99  E(vib)   ...       0.00
freq.    1517.36  E(vib)   ...       0.00
freq.    1518.82  E(vib)   ...       0.00
freq.    1522.57  E(vib)   ...       0.00
freq.    1524.49  E(vib)   ...       0.00
freq.    1527.71  E(vib)   ...       0.00
freq.    1537.10  E(vib)   ...       0.00
freq.    1538.60  E(vib)   ...       0.00
freq.    1541.19  E(vib)   ...       0.00
freq.    1791.57  E(vib)   ...       0.00
freq.    1812.89  E(vib)   ...       0.00
freq.    3044.22  E(vib)   ...       0.00
freq.    3056.80  E(vib)   ...       0.00
freq.    3070.10  E(vib)   ...       0.00
freq.    3071.22  E(vib)   ...       0.00
freq.    3080.68  E(vib)   ...       0.00
freq.    3091.13  E(vib)   ...       0.00
freq.    3092.72  E(vib)   ...       0.00
freq.    3094.19  E(vib)   ...       0.00
freq.    3095.13  E(vib)   ...       0.00
freq.    3100.02  E(vib)   ...       0.00
freq.    3110.55  E(vib)   ...       0.00
freq.    3121.75  E(vib)   ...       0.00
freq.    3131.02  E(vib)   ...       0.00
freq.    3147.45  E(vib)   ...       0.00
freq.    3162.26  E(vib)   ...       0.00
freq.    3167.74  E(vib)   ...       0.00
freq.    3180.82  E(vib)   ...       0.00
freq.    3187.28  E(vib)   ...       0.00
freq.    3189.27  E(vib)   ...       0.00
freq.    3192.86  E(vib)   ...       0.00
freq.    3202.57  E(vib)   ...       0.00
freq.    3212.99  E(vib)   ...       0.00
freq.    3227.54  E(vib)   ...       0.00
freq.    3272.67  E(vib)   ...       0.00

------------
INNER ENERGY
------------

The inner energy is: U= E(el) + E(ZPE) + E(vib) + E(rot) + E(trans)
    E(el)   - is the total energy from the electronic structure calculation
              = E(kin-el) + E(nuc-el) + E(el-el) + E(nuc-nuc)
    E(ZPE)  - the the zero temperature vibrational energy from the frequency calculation
    E(vib)  - the the finite temperature correction to E(ZPE) due to population
              of excited vibrational states
    E(rot)  - is the rotational thermal energy
    E(trans)- is the translational thermal energy

Summary of contributions to the inner energy U:
Electronic energy                ...    -99.94158519 Eh
Zero point energy                ...      0.36571498 Eh     229.49 kcal/mol
Thermal vibrational correction   ...      0.01268144 Eh       7.96 kcal/mol
Thermal rotational correction    ...      0.00141627 Eh       0.89 kcal/mol
Thermal translational correction ...      0.00141627 Eh       0.89 kcal/mol
-----------------------------------------------------------------------
Total thermal energy                    -99.56035622 Eh

Summary of corrections to the electronic energy:
(perhaps to be used in another calculation)
Total thermal correction                  0.01551399 Eh       9.74 kcal/mol
Non-thermal (ZPE) correction              0.36571498 Eh     229.49 kcal/mol
-----------------------------------------------------------------------
Total correction                          0.38122897 Eh     239.22 kcal/mol

Rotational constants in cm-1:     0.023363     0.018196     0.012262

                             ****ORCA TERMINATED NORMALLY****
TOTAL RUN TIME: 0 days 0 hours 39 minutes 29 seconds 564 msec
