                         Program Version 6.0.1  -  RELEASE   -
|  1> ! wB97X-3c OPT FREQ TightSCF
|  2> %pal
|  3>   nprocs 40
|  4> end
|  5> * xyz 0 1
|  6> C      3.554822    -0.081689     0.084439
|  7> O      2.177222     0.272874     0.089455
|  8> C      1.154512    -0.667464    -0.077322
|  9> O      1.438569    -1.886491    -0.240691
| 10> C     -0.258896    -0.229874    -0.061720
| 11> C     -1.301730    -1.161079    -0.227863
| 12> C     -2.635206    -0.740025    -0.211980
| 13> C     -2.941864     0.610437    -0.030735
| 14> C     -1.915525     1.543087     0.135071
| 15> C     -0.580177     1.127837     0.120072
| 16> H      3.825635    -0.541031    -0.889800
| 17> H      4.166694     0.831417     0.233874
| 18> H      3.766623    -0.795755     0.908287
| 19> H     -1.088157    -2.213101    -0.369885
| 20> H     -3.431456    -1.461891    -0.340374
| 21> H     -3.974606     0.934153    -0.018771
| 22> H     -2.154503     2.589402     0.275452
| 23> H      0.198044     1.869193     0.250634
| 24> *
| 25>
| 26>                          ****END OF INPUT****
 Total Charge           Charge          ....    0
 Multiplicity           Mult            ....    1
 Number of Electrons    NEL             ....   52
Dispersion correction           -0.021214010
FINAL SINGLE POINT ENERGY       -82.488592462837
Dispersion correction             ... done (  0.1 sec)
Dispersion correction           -0.021699340
FINAL SINGLE POINT ENERGY       -82.505429219094
Dispersion correction             ... done (  0.1 sec)
Dispersion correction           -0.021795665
FINAL SINGLE POINT ENERGY       -82.506721355115
Dispersion correction             ... done (  0.1 sec)
FINAL SINGLE POINT ENERGY       -82.506885133820
FINAL SINGLE POINT ENERGY       -82.506910004928
Dispersion correction             ... done (  0.1 sec)
Dispersion correction           -0.021754382
FINAL SINGLE POINT ENERGY       -82.506912429832
Dispersion correction             ... done (  0.1 sec)
Dispersion correction           -0.021756903
FINAL SINGLE POINT ENERGY       -82.506910184450
Dispersion correction             ... done (  0.1 sec)
                    ***********************HURRAY********************

CARTESIAN COORDINATES (ANGSTROEM)
---------------------------------
  C      3.427799   -0.103974    0.078482
  O      2.062368    0.292089    0.088799
  C      1.171970   -0.686446   -0.081278
  O      1.486268   -1.836371   -0.235477
  C     -0.231901   -0.201971   -0.058383
  C     -1.242629   -1.137526   -0.222993
  C     -2.564212   -0.736732   -0.208177
  C     -2.879194    0.600145   -0.029047
  C     -1.871501    1.535307    0.134950
  C     -0.547846    1.136913    0.120732
  H      3.680526   -0.564203   -0.873060
  H      4.001087    0.804167    0.226825
  H      3.621369   -0.813182    0.878906
  H     -0.974440   -2.174712   -0.361318
  H     -3.350777   -1.467030   -0.336256
  H     -3.913899    0.914327   -0.017178
  H     -2.117675    2.578581    0.274534
  H      0.242689    1.860619    0.248081

 Multiplicity           Mult            ....    1
 Number of Electrons    NEL             ....   52
 Basis Dimension        Dim             ....  170

ORBITAL ENERGIES
----------------

  NO   OCC          E(Eh)            E(eV)
   0   2.0000      -1.247551       -33.9476
   1   2.0000      -1.147056       -31.2130
   2   2.0000      -1.019390       -27.7390
   3   2.0000      -0.923280       -25.1237
   4   2.0000      -0.900473       -24.5031
   5   2.0000      -0.865842       -23.5608
   6   2.0000      -0.766771       -20.8649
   7   2.0000      -0.746679       -20.3182
   8   2.0000      -0.697054       -18.9678
   9   2.0000      -0.671965       -18.2851
  10   2.0000      -0.616449       -16.7744
  11   2.0000      -0.615848       -16.7581
  12   2.0000      -0.602359       -16.3910
  13   2.0000      -0.574770       -15.6403
  14   2.0000      -0.566213       -15.4074
  15   2.0000      -0.548013       -14.9122
  16   2.0000      -0.537064       -14.6142
  17   2.0000      -0.529777       -14.4160
  18   2.0000      -0.490231       -13.3399
  19   2.0000      -0.480639       -13.0789
  20   2.0000      -0.472760       -12.8644
  21   2.0000      -0.458479       -12.4759
  22   2.0000      -0.422215       -11.4891
  23   2.0000      -0.395944       -10.7742
  24   2.0000      -0.362646        -9.8681
  25   2.0000      -0.361411        -9.8345
  26   0.0000       0.023864         0.6494
  27   0.0000       0.060280         1.6403
  28   0.0000       0.082997         2.2585
  29   0.0000       0.093082         2.5329
  30   0.0000       0.106674         2.9028

MULLIKEN ATOMIC CHARGES
-----------------------
   0 C :    0.118158
   1 O :   -0.291474
   2 C :    0.266015
   3 O :   -0.337347
   4 C :   -0.096699
   5 C :    0.035555
   6 C :   -0.004873
   7 C :   -0.001602
   8 C :   -0.006376
   9 C :    0.036902
  10 H :    0.051314
  11 H :    0.048715
  12 H :    0.051580
  13 H :    0.034353
  14 H :    0.023348
  15 H :    0.020597
  16 H :    0.021414
  17 H :    0.030419
Sum of atomic charges:   -0.0000000

LOEWDIN ATOMIC CHARGES
----------------------
   0 C :   -0.036315
   1 O :   -0.014381
   2 C :   -0.047923
   3 O :   -0.139525
   4 C :   -0.046242
   5 C :   -0.003701
   6 C :   -0.042205
   7 C :   -0.030975
   8 C :   -0.043824
   9 C :   -0.013985
  10 H :    0.053177
  11 H :    0.054650
  12 H :    0.053219
  13 H :    0.058196
  14 H :    0.049246
  15 H :    0.049750
  16 H :    0.048493
  17 H :    0.052345

  Mayer bond orders larger than 0.100000
B(  0-C ,  1-O ) :   0.9056 B(  0-C , 10-H ) :   0.9920 B(  0-C , 11-H ) :   1.0014
B(  0-C , 12-H ) :   0.9920 B(  1-O ,  2-C ) :   1.1392 B(  2-C ,  3-O ) :   1.9016
B(  2-C ,  4-C ) :   1.0953 B(  4-C ,  5-C ) :   1.4342 B(  4-C ,  9-C ) :   1.4271
B(  5-C ,  6-C ) :   1.4521 B(  5-C , 13-H ) :   0.9809 B(  6-C ,  7-C ) :   1.4395
B(  6-C , 14-H ) :   0.9897 B(  7-C ,  8-C ) :   1.4444 B(  7-C , 15-H ) :   0.9937
B(  8-C ,  9-C ) :   1.4504 B(  8-C , 16-H ) :   0.9901 B(  9-C , 17-H ) :   0.9804

Dispersion correction           -0.021756948
FINAL SINGLE POINT ENERGY       -82.506913553514

DIPOLE MOMENT
-------------

Method             : SCF
Type of density    : Electron Density
Multiplicity       :   1
Irrep              :   0
Energy             :   -82.4851566056483989 Eh
Relativity type    :
Basis              : AO
                                X                 Y                 Z
Electronic contribution:     -5.994662520      -0.429059861      -0.265005036
Nuclear contribution   :      5.899143129       1.195451736       0.372683282
                        -----------------------------------------
Total Dipole Moment    :     -0.095519391       0.766391875       0.107678246
                        -----------------------------------------
Magnitude (a.u.)       :      0.779791680
Magnitude (Debye)      :      1.982072934

VIBRATIONAL FREQUENCIES
-----------------------

Scaling factor for frequencies =  1.000000000  (already applied!)

     0:       0.00 cm**-1
     1:       0.00 cm**-1
     2:       0.00 cm**-1
     3:       0.00 cm**-1
     4:       0.00 cm**-1
     5:       0.00 cm**-1
     6:      52.60 cm**-1
     7:     110.30 cm**-1
     8:     159.18 cm**-1
     9:     170.68 cm**-1
    10:     210.30 cm**-1
    11:     339.53 cm**-1
    12:     368.09 cm**-1
    13:     420.05 cm**-1
    14:     459.59 cm**-1
    15:     495.21 cm**-1
    16:     642.60 cm**-1
    17:     704.55 cm**-1
    18:     715.82 cm**-1
    19:     738.75 cm**-1
    20:     843.56 cm**-1
    21:     862.42 cm**-1
    22:     885.68 cm**-1
    23:     984.73 cm**-1
    24:    1026.61 cm**-1
    25:    1038.01 cm**-1
    26:    1040.16 cm**-1
    27:    1044.31 cm**-1
    28:    1080.25 cm**-1
    29:    1129.09 cm**-1
    30:    1185.43 cm**-1
    31:    1196.62 cm**-1
    32:    1207.77 cm**-1
    33:    1221.81 cm**-1
    34:    1251.15 cm**-1
    35:    1351.18 cm**-1
    36:    1369.47 cm**-1
    37:    1375.64 cm**-1
    38:    1507.75 cm**-1
    39:    1517.00 cm**-1
    40:    1523.23 cm**-1
    41:    1529.09 cm**-1
    42:    1571.33 cm**-1
    43:    1699.25 cm**-1
    44:    1719.91 cm**-1
    45:    1860.18 cm**-1
    46:    3131.49 cm**-1
    47:    3233.90 cm**-1
    48:    3251.71 cm**-1
    49:    3257.94 cm**-1
    50:    3264.04 cm**-1
    51:    3273.54 cm**-1
    52:    3285.46 cm**-1
    53:    3291.68 cm**-1

IR SPECTRUM
-----------

 Mode   freq       eps      Int      T**2         TX        TY        TZ
       cm**-1   L/(mol*cm) km/mol    a.u.
----------------------------------------------------------------------------
  6:     52.60   0.000378    1.91  0.002243  ( 0.001427  0.006771 -0.046855)
  7:    110.30   0.000427    2.16  0.001209  (-0.001157 -0.004706  0.034425)
  8:    159.18   0.000007    0.04  0.000014  ( 0.000062  0.000355 -0.003724)
  9:    170.68   0.000460    2.33  0.000842  (-0.003418  0.028555  0.003831)
 10:    210.30   0.000514    2.60  0.000763  (-0.000872 -0.003872  0.027343)
 11:    339.53   0.003356   16.96  0.003085  ( 0.049321  0.024998  0.005212)
 12:    368.09   0.000049    0.25  0.000041  ( 0.005822  0.002678  0.000604)
 13:    420.05   0.000000    0.00  0.000000  ( 0.000054  0.000015 -0.000371)
 14:    459.59   0.000111    0.56  0.000075  (-0.000392 -0.001128  0.008598)
 15:    495.21   0.001019    5.15  0.000642  ( 0.021972 -0.012581 -0.000955)
 16:    642.60   0.000070    0.35  0.000034  (-0.005469 -0.001938 -0.000472)
 17:    704.55   0.001508    7.62  0.000668  (-0.024800  0.007275  0.000107)
 18:    715.82   0.003198   16.16  0.001394  (-0.001268 -0.005209  0.036950)
 19:    738.75   0.021162  106.95  0.008939  ( 0.002963  0.013300 -0.093561)
 20:    843.56   0.000020    0.10  0.000007  ( 0.000010 -0.000374  0.002684)
 21:    862.42   0.001743    8.81  0.000631  ( 0.012080 -0.021853 -0.002710)
 22:    885.68   0.000004    0.02  0.000001  ( 0.000065  0.000187 -0.001182)
 23:    984.73   0.000285    1.44  0.000090  ( 0.000319  0.001344 -0.009402)
 24:   1026.61   0.000005    0.03  0.000002  ( 0.000031  0.000173 -0.001221)
 25:   1038.01   0.001652    8.35  0.000497  (-0.005299  0.021457  0.002864)
 26:   1040.16   0.000009    0.04  0.000003  (-0.000179 -0.000190  0.001586)
 27:   1044.31   0.000501    2.53  0.000150  (-0.010393  0.006431  0.000549)
 28:   1080.25   0.003713   18.77  0.001073  (-0.031302  0.009631  0.000344)
 29:   1129.09   0.002862   14.46  0.000791  (-0.020504 -0.018964 -0.003316)
 30:   1185.43   0.013948   70.49  0.003672  ( 0.059723  0.009656  0.003405)
 31:   1196.62   0.000316    1.60  0.000082  ( 0.004085  0.008006  0.001263)
 32:   1207.77   0.000147    0.74  0.000038  (-0.000216 -0.000864  0.006101)
 33:   1221.81   0.005182   26.19  0.001323  (-0.036357  0.000543 -0.001149)
 34:   1251.15   0.006715   33.94  0.001675  (-0.037086 -0.016914 -0.003664)
 35:   1351.18   0.028762  145.35  0.006643  (-0.077969 -0.023008 -0.005862)
 36:   1369.47   0.065184  329.41  0.014854  ( 0.121306  0.010382  0.005533)
 37:   1375.64   0.018155   91.75  0.004118  (-0.062119 -0.015533 -0.004285)
 38:   1507.75   0.007181   36.29  0.001486  ( 0.038083 -0.005969  0.000634)
 39:   1517.00   0.002545   12.86  0.000524  (-0.000991 -0.003121  0.022645)
 40:   1523.23   0.004114   20.79  0.000843  ( 0.026029  0.012581  0.002662)
 41:   1529.09   0.003051   15.42  0.000623  ( 0.015033  0.019643  0.003285)
 42:   1571.33   0.001073    5.42  0.000213  (-0.011166 -0.009252 -0.001690)
 43:   1699.25   0.000998    5.04  0.000183  (-0.008146  0.010738  0.001277)
 44:   1719.91   0.002745   13.87  0.000498  (-0.022204  0.002197 -0.000422)
 45:   1860.18   0.063189  319.33  0.010601  (-0.028684  0.098006  0.013138)
 46:   3131.49   0.006671   33.71  0.000665  ( 0.025767  0.000333  0.000877)
 47:   3233.90   0.001339    6.77  0.000129  ( 0.000384  0.001596 -0.011250)
 48:   3251.71   0.000047    0.24  0.000005  (-0.002068  0.000508  0.000030)
 49:   3257.94   0.000799    4.04  0.000077  (-0.005456 -0.006746 -0.001136)
 50:   3264.04   0.001222    6.18  0.000117  (-0.002058 -0.010499 -0.001544)
 51:   3273.54   0.001138    5.75  0.000108  (-0.009897  0.003242  0.000093)
 52:   3285.46   0.000750    3.79  0.000071  ( 0.008347  0.001174  0.000409)
 53:   3291.68   0.000413    2.08  0.000039  ( 0.003645 -0.005049 -0.000585)

--------------------------
THERMOCHEMISTRY AT 298.15K
--------------------------

Temperature         ...   298.15 K
Pressure            ...     1.00 atm
Total Mass          ...   136.15 AMU
Quasi RRHO          ...     True
Cut-Off Frequency   ...     1.00 cm^-1

Throughout the following assumptions are being made:
  (1) The electronic state is orbitally nondegenerate
  (2) There are no thermally accessible electronically excited states
  (3) Hindered rotations indicated by low frequency modes are not
      treated as such but are treated as vibrations and this may
      cause some error
  (4) All equations used are the standard statistical mechanics
      equations for an ideal gas
  (5) All vibrations are strictly harmonic

freq.      52.60  E(vib)   ...       0.52
freq.     110.30  E(vib)   ...       0.45
freq.     159.18  E(vib)   ...       0.39
freq.     170.68  E(vib)   ...       0.38
freq.     210.30  E(vib)   ...       0.34
freq.     339.53  E(vib)   ...       0.23
freq.     368.09  E(vib)   ...       0.21
freq.     420.05  E(vib)   ...       0.18
freq.     459.59  E(vib)   ...       0.16
freq.     495.21  E(vib)   ...       0.14
freq.     642.60  E(vib)   ...       0.09
freq.     704.55  E(vib)   ...       0.07
freq.     715.82  E(vib)   ...       0.07
freq.     738.75  E(vib)   ...       0.06
freq.     843.56  E(vib)   ...       0.04
freq.     862.42  E(vib)   ...       0.04
freq.     885.68  E(vib)   ...       0.04
freq.     984.73  E(vib)   ...       0.02
freq.    1026.61  E(vib)   ...       0.02
freq.    1038.01  E(vib)   ...       0.02
freq.    1040.16  E(vib)   ...       0.02
freq.    1044.31  E(vib)   ...       0.02
freq.    1080.25  E(vib)   ...       0.02
freq.    1129.09  E(vib)   ...       0.01
freq.    1185.43  E(vib)   ...       0.01
freq.    1196.62  E(vib)   ...       0.01
freq.    1207.77  E(vib)   ...       0.01
freq.    1221.81  E(vib)   ...       0.01
freq.    1251.15  E(vib)   ...       0.01
freq.    1351.18  E(vib)   ...       0.01
freq.    1369.47  E(vib)   ...       0.01
freq.    1375.64  E(vib)   ...       0.01
freq.    1507.75  E(vib)   ...       0.00
freq.    1517.00  E(vib)   ...       0.00
freq.    1523.23  E(vib)   ...       0.00
freq.    1529.09  E(vib)   ...       0.00
freq.    1571.33  E(vib)   ...       0.00
freq.    1699.25  E(vib)   ...       0.00
freq.    1719.91  E(vib)   ...       0.00
freq.    1860.18  E(vib)   ...       0.00
freq.    3131.49  E(vib)   ...       0.00
freq.    3233.90  E(vib)   ...       0.00
freq.    3251.71  E(vib)   ...       0.00
freq.    3257.94  E(vib)   ...       0.00
freq.    3264.04  E(vib)   ...       0.00
freq.    3273.54  E(vib)   ...       0.00
freq.    3285.46  E(vib)   ...       0.00
freq.    3291.68  E(vib)   ...       0.00

------------
INNER ENERGY
------------

The inner energy is: U= E(el) + E(ZPE) + E(vib) + E(rot) + E(trans)
    E(el)   - is the total energy from the electronic structure calculation
              = E(kin-el) + E(nuc-el) + E(el-el) + E(nuc-nuc)
    E(ZPE)  - the the zero temperature vibrational energy from the frequency calculation
    E(vib)  - the the finite temperature correction to E(ZPE) due to population
              of excited vibrational states
    E(rot)  - is the rotational thermal energy
    E(trans)- is the translational thermal energy

Summary of contributions to the inner energy U:
Electronic energy                ...    -82.50691355 Eh
Zero point energy                ...      0.14716655 Eh      92.35 kcal/mol
Thermal vibrational correction   ...      0.00580148 Eh       3.64 kcal/mol
Thermal rotational correction    ...      0.00141627 Eh       0.89 kcal/mol
Thermal translational correction ...      0.00141627 Eh       0.89 kcal/mol
-----------------------------------------------------------------------
Total thermal energy                    -82.35111299 Eh

Summary of corrections to the electronic energy:
(perhaps to be used in another calculation)
Total thermal correction                  0.00863402 Eh       5.42 kcal/mol
Non-thermal (ZPE) correction              0.14716655 Eh      92.35 kcal/mol
-----------------------------------------------------------------------
Total correction                          0.15580057 Eh      97.77 kcal/mol

--------
ENTHALPY
--------

The enthalpy is H = U + kB*T
                kB is Boltzmann's constant
Total thermal energy              ...    -82.35111299 Eh
Thermal Enthalpy correction       ...      0.00094421 Eh       0.59 kcal/mol
-----------------------------------------------------------------------
Total Enthalpy                    ...    -82.35016878 Eh

Note: Only C1 symmetry has been detected, increase convergence thresholds
      if your molecule has a higher symmetry. Symmetry factor of 1.0 is
      used for the rotational entropy correction.

Note: Rotational entropy computed according to Herzberg
Infrared and Raman Spectra, Chapter V,1, Van Nostrand Reinhold, 1945
Point Group:  C1, Symmetry Number:   1
Rotational constants in cm-1:     0.119521     0.028398     0.023045

Vibrational entropy computed according to the QRRHO of S. Grimme
Chem.Eur.J. 2012 18 9955 using a reference frequency of 100.0 cm-1

-------
ENTROPY
-------

The entropy contributions are T*S = T*(S(el)+S(vib)+S(rot)+S(trans))
     S(el)   - electronic entropy
     S(vib)  - vibrational entropy
     S(rot)  - rotational entropy
     S(trans)- translational entropy
The entropies will be listed as multiplied by the temperature to get
units of energy

Electronic entropy                ...      0.00000000 Eh      0.00 kcal/mol
Vibrational entropy               ...      0.00991514 Eh      6.22 kcal/mol
Rotational entropy                ...      0.01397489 Eh      8.77 kcal/mol
Translational entropy             ...      0.01930829 Eh     12.12 kcal/mol
-----------------------------------------------------------------------
Final entropy term                ...      0.04319831 Eh     27.11 kcal/mol

In case the symmetry of your molecule has not been determined correctly
or in case you have a reason to use a different symmetry number we print
out the resulting rotational entropy values for sn=1,12:

 non-linear molecules -----------------------------------
|  sn= 1 | S(rot)=       0.01397489 Eh      8.77 kcal/mol|
|  sn= 2 | S(rot)=       0.01332043 Eh      8.36 kcal/mol|
|  sn= 3 | S(rot)=       0.01293760 Eh      8.12 kcal/mol|
|  sn= 4 | S(rot)=       0.01266598 Eh      7.95 kcal/mol|
|  sn= 5 | S(rot)=       0.01245529 Eh      7.82 kcal/mol|
|  sn= 6 | S(rot)=       0.01228314 Eh      7.71 kcal/mol|
|  sn= 7 | S(rot)=       0.01213760 Eh      7.62 kcal/mol|
|  sn= 8 | S(rot)=       0.01201152 Eh      7.54 kcal/mol|
|  sn= 9 | S(rot)=       0.01190031 Eh      7.47 kcal/mol|
|  sn=10 | S(rot)=       0.01180083 Eh      7.41 kcal/mol|
|  sn=11 | S(rot)=       0.01171084 Eh      7.35 kcal/mol|
|  sn=12 | S(rot)=       0.01162869 Eh      7.30 kcal/mol|

                             ****ORCA TERMINATED NORMALLY****
TOTAL RUN TIME: 0 days 0 hours 6 minutes 12 seconds 483 msec
