                         Program Version 6.0.1  -  RELEASE   -
|  1> ! wB97X-3c OPT FREQ TightSCF
|  2> %pal
|  3>   nprocs 40
|  4> end
|  5> * xyz 0 1
|  6> C     -4.064488    -0.231144    -0.231335
|  7> C     -2.659108     0.311839    -0.257964
|  8> C     -1.740398    -0.319066    -1.022065
|  9> C     -0.284611     0.075076    -1.112368
| 10> C      0.556158    -0.598333    -0.004406
| 11> C      2.012114    -0.104481    -0.033754
| 12> O      2.061032     1.281097     0.295720
| 13> C      3.255976     2.003688     0.343348
| 14> O      4.360621     1.438452     0.118331
| 15> C      3.226558     3.447907     0.711607
| 16> C      0.497001    -2.119790    -0.099409
| 17> C      0.987487    -2.771438    -1.167664
| 18> C     -0.132352    -2.921779     1.010154
| 19> C     -2.322367     1.545593     0.546524
| 20> H     -4.055580    -1.273840     0.151324
| 21> H     -4.489250    -0.224718    -1.257566
| 22> H     -4.727361     0.372941     0.422407
| 23> H     -2.044438    -1.192482    -1.594158
| 24> H      0.098349    -0.227048    -2.110559
| 25> H     -0.180247     1.179305    -1.064224
| 26> H      0.139612    -0.284784     0.976304
| 27> H      2.611211    -0.674114     0.710856
| 28> H      2.455029    -0.260628    -1.041685
| 29> H      3.985386     4.006555     0.124103
| 30> H      3.445951     3.558095     1.793845
| 31> H      2.223528     3.873237     0.498000
| 32> H      0.936307    -3.854585    -1.228678
| 33> H      1.444312    -2.237273    -1.993996
| 34> H      0.616810    -3.619640     1.440338
| 35> H     -0.510385    -2.270278     1.825034
| 36> H     -0.987853    -3.506672     0.610643
| 37> H     -1.999111     2.363311    -0.130932
| 38> H     -3.200721     1.909333     1.118904
| 39> H     -1.515171     1.325664     1.273823
| 40> *
| 41>
| 42>                          ****END OF INPUT****
 Total Charge           Charge          ....    0
 Multiplicity           Mult            ....    1
 Number of Electrons    NEL             ....   80
Dispersion correction           -0.037493951
FINAL SINGLE POINT ENERGY      -112.507828229156
Dispersion correction             ... done (  0.1 sec)
Dispersion correction           -0.038171390
FINAL SINGLE POINT ENERGY      -112.528472589971
Dispersion correction             ... done (  0.1 sec)
Dispersion correction           -0.038242277
FINAL SINGLE POINT ENERGY      -112.530314915154
Dispersion correction             ... done (  0.1 sec)
FINAL SINGLE POINT ENERGY      -112.530673903546
FINAL SINGLE POINT ENERGY      -112.530632214840
FINAL SINGLE POINT ENERGY      -112.530983878317
FINAL SINGLE POINT ENERGY      -112.531203302970
FINAL SINGLE POINT ENERGY      -112.532117307558
FINAL SINGLE POINT ENERGY      -112.532706084434
FINAL SINGLE POINT ENERGY      -112.533697710241
FINAL SINGLE POINT ENERGY      -112.541375707027
FINAL SINGLE POINT ENERGY      -112.541380849229
FINAL SINGLE POINT ENERGY      -112.541386379957
FINAL SINGLE POINT ENERGY      -112.541392074381
FINAL SINGLE POINT ENERGY      -112.541399937233
FINAL SINGLE POINT ENERGY      -112.541406512324
FINAL SINGLE POINT ENERGY      -112.541410749899
Dispersion correction             ... done (  0.1 sec)
Dispersion correction           -0.038111023
FINAL SINGLE POINT ENERGY      -112.541412583010
Dispersion correction             ... done (  0.1 sec)
Dispersion correction           -0.038118532
FINAL SINGLE POINT ENERGY      -112.541413758222
Dispersion correction             ... done (  0.1 sec)
                    ***********************HURRAY********************

CARTESIAN COORDINATES (ANGSTROEM)
---------------------------------
  C     -4.059966   -0.151101   -0.238431
  C     -2.651643    0.357766   -0.244809
  C     -1.704046   -0.253471   -0.949636
  C     -0.260691    0.134651   -1.033837
  C      0.604112   -0.607623   -0.013686
  C      2.045223   -0.145556   -0.049998
  O      2.080121    1.231218    0.335725
  C      3.276474    1.824908    0.318837
  O      4.287356    1.259328    0.003345
  C      3.183522    3.258189    0.734405
  C      0.546521   -2.111191   -0.188237
  C      0.988493   -2.706175   -1.287354
  C     -0.035682   -2.877929    0.954190
  C     -2.425168    1.577484    0.593338
  H     -4.377701   -0.403232    0.774820
  H     -4.171683   -1.035167   -0.862349
  H     -4.748514    0.613255   -0.603214
  H     -1.983457   -1.145397   -1.500718
  H      0.111539   -0.085865   -2.036333
  H     -0.133723    1.205024   -0.885910
  H      0.214622   -0.369491    0.978974
  H      2.662886   -0.720976    0.638048
  H      2.477635   -0.245474   -1.044501
  H      4.174235    3.698129    0.735688
  H      2.739790    3.327514    1.724628
  H      2.537609    3.796973    0.044805
  H      0.949054   -3.781883   -1.397687
  H      1.400525   -2.147693   -2.118057
  H      0.529940   -2.692547    1.868756
  H     -1.059368   -2.549985    1.141460
  H     -0.040882   -3.948738    0.763002
  H     -3.032842    2.408457    0.230362
  H     -2.736756    1.389206    1.622169
  H     -1.387536    1.897393    0.612706

 Multiplicity           Mult            ....    1
 Number of Electrons    NEL             ....   80
 Basis Dimension        Dim             ....  282

ORBITAL ENERGIES
----------------

  NO   OCC          E(Eh)            E(eV)
   0   2.0000      -1.241584       -33.7852
   1   2.0000      -1.143274       -31.1101
   2   2.0000      -0.987910       -26.8824
   3   2.0000      -0.953665       -25.9505
   4   2.0000      -0.916553       -24.9407
   5   2.0000      -0.891772       -24.2664
   6   2.0000      -0.853530       -23.2257
   7   2.0000      -0.829897       -22.5827
   8   2.0000      -0.824684       -22.4408
   9   2.0000      -0.786812       -21.4102
  10   2.0000      -0.746737       -20.3197
  11   2.0000      -0.694963       -18.9109
  12   2.0000      -0.656095       -17.8533
  13   2.0000      -0.635155       -17.2834
  14   2.0000      -0.620308       -16.8794
  15   2.0000      -0.613848       -16.7037
  16   2.0000      -0.598585       -16.2883
  17   2.0000      -0.593970       -16.1628
  18   2.0000      -0.569596       -15.4995
  19   2.0000      -0.568511       -15.4700
  20   2.0000      -0.556940       -15.1551
  21   2.0000      -0.545930       -14.8555
  22   2.0000      -0.540873       -14.7179
  23   2.0000      -0.533439       -14.5156
  24   2.0000      -0.525703       -14.3051
  25   2.0000      -0.508562       -13.8387
  26   2.0000      -0.503676       -13.7057
  27   2.0000      -0.496629       -13.5140
  28   2.0000      -0.488497       -13.2927
  29   2.0000      -0.480979       -13.0881
  30   2.0000      -0.478127       -13.0105
  31   2.0000      -0.473873       -12.8947
  32   2.0000      -0.464475       -12.6390
  33   2.0000      -0.444777       -12.1030
  34   2.0000      -0.439709       -11.9651
  35   2.0000      -0.425017       -11.5653
  36   2.0000      -0.413614       -11.2550
  37   2.0000      -0.388880       -10.5820
  38   2.0000      -0.356263        -9.6944
  39   2.0000      -0.333708        -9.0807
  40   0.0000       0.077327         2.1042
  41   0.0000       0.082832         2.2540
  42   0.0000       0.089711         2.4412
  43   0.0000       0.093311         2.5391
  44   0.0000       0.095462         2.5977

MULLIKEN ATOMIC CHARGES
-----------------------
   0 C :   -0.046443
   1 C :   -0.073807
   2 C :   -0.021543
   3 C :   -0.028791
   4 C :   -0.072171
   5 C :    0.119066
   6 O :   -0.274755
   7 C :    0.242290
   8 O :   -0.325148
   9 C :   -0.063320
  10 C :   -0.101894
  11 C :   -0.006874
  12 C :   -0.027541
  13 C :   -0.050541
  14 H :    0.031250
  15 H :    0.027307
  16 H :    0.035796
  17 H :    0.012414
  18 H :    0.036585
  19 H :    0.038744
  20 H :    0.035579
  21 H :    0.053431
  22 H :    0.049217
  23 H :    0.056520
  24 H :    0.054604
  25 H :    0.053231
  26 H :    0.023463
  27 H :    0.017726
  28 H :    0.037616
  29 H :    0.039937
  30 H :    0.029774
  31 H :    0.041457
  32 H :    0.036757
  33 H :    0.020064
Sum of atomic charges:    0.0000000

LOEWDIN ATOMIC CHARGES
----------------------
   0 C :   -0.107686
   1 C :   -0.054187
   2 C :   -0.052320
   3 C :   -0.077200
   4 C :   -0.062668
   5 C :   -0.012885
   6 O :   -0.012249
   7 C :   -0.055980
   8 O :   -0.142232
   9 C :   -0.084087
  10 C :   -0.037589
  11 C :   -0.075327
  12 C :   -0.104122
  13 C :   -0.105547
  14 H :    0.046673
  15 H :    0.049520
  16 H :    0.048844
  17 H :    0.037644
  18 H :    0.048247
  19 H :    0.044169
  20 H :    0.053621
  21 H :    0.055949
  22 H :    0.051987
  23 H :    0.062034
  24 H :    0.060793
  25 H :    0.060761
  26 H :    0.034686
  27 H :    0.031662
  28 H :    0.050496
  29 H :    0.051344
  30 H :    0.050584
  31 H :    0.050624
  32 H :    0.049770
  33 H :    0.044671

  Mayer bond orders larger than 0.100000
B(  0-C ,  1-C ) :   1.0320 B(  0-C , 14-H ) :   0.9795 B(  0-C , 15-H ) :   0.9915
B(  0-C , 16-H ) :   0.9810 B(  1-C ,  2-C ) :   1.8923 B(  1-C , 13-C ) :   1.0354
B(  2-C ,  3-C ) :   1.0298 B(  2-C , 17-H ) :   0.9916 B(  3-C ,  4-C ) :   0.9602
B(  3-C , 18-H ) :   0.9873 B(  3-C , 19-H ) :   0.9901 B(  4-C ,  5-C ) :   0.9959
B(  4-C , 10-C ) :   1.0164 B(  4-C , 20-H ) :   0.9891 B(  5-C ,  6-O ) :   0.8832
B(  5-C , 21-H ) :   1.0014 B(  5-C , 22-H ) :   0.9957 B(  6-O ,  7-C ) :   1.1495
B(  7-C ,  8-O ) :   1.9302 B(  7-C ,  9-C ) :   1.0437 B(  9-C , 23-H ) :   0.9873
B(  9-C , 24-H ) :   0.9742 B(  9-C , 25-H ) :   0.9737 B( 10-C , 11-C ) :   1.9452
B( 10-C , 12-C ) :   1.0336 B( 11-C , 26-H ) :   0.9835 B( 11-C , 27-H ) :   0.9870
B( 12-C , 28-H ) :   0.9765 B( 12-C , 29-H ) :   0.9759 B( 12-C , 30-H ) :   0.9894
B( 13-C , 31-H ) :   0.9776 B( 13-C , 32-H ) :   0.9769 B( 13-C , 33-H ) :   0.9913

Dispersion correction           -0.038127550
FINAL SINGLE POINT ENERGY      -112.541414779005

DIPOLE MOMENT
-------------

Method             : SCF
Type of density    : Electron Density
Multiplicity       :   1
Irrep              :   0
Energy             :  -112.5032872288121268 Eh
Relativity type    :
Basis              : AO
                                X                 Y                 Z
Electronic contribution:     10.979499580       0.705196799      -2.425369029
Nuclear contribution   :    -11.970726171      -0.454142570       2.808159817
                        -----------------------------------------
Total Dipole Moment    :     -0.991226592       0.251054229       0.382790788
                        -----------------------------------------
Magnitude (a.u.)       :      1.091827445
Magnitude (Debye)      :      2.775204815

VIBRATIONAL FREQUENCIES
-----------------------

Scaling factor for frequencies =  1.000000000  (already applied!)

     0:       0.00 cm**-1
     1:       0.00 cm**-1
     2:       0.00 cm**-1
     3:       0.00 cm**-1
     4:       0.00 cm**-1
     5:       0.00 cm**-1
     6:      19.76 cm**-1
     7:      26.20 cm**-1
     8:      33.90 cm**-1
     9:      36.78 cm**-1
    10:      50.12 cm**-1
    11:      67.87 cm**-1
    12:      95.40 cm**-1
    13:     110.91 cm**-1
    14:     136.30 cm**-1
    15:     178.72 cm**-1
    16:     189.83 cm**-1
    17:     207.76 cm**-1
    18:     222.84 cm**-1
    19:     245.02 cm**-1
    20:     271.34 cm**-1
    21:     290.60 cm**-1
    22:     341.77 cm**-1
    23:     385.18 cm**-1
    24:     412.11 cm**-1
    25:     436.92 cm**-1
    26:     475.22 cm**-1
    27:     484.50 cm**-1
    28:     541.66 cm**-1
    29:     560.12 cm**-1
    30:     605.25 cm**-1
    31:     624.78 cm**-1
    32:     672.01 cm**-1
    33:     749.17 cm**-1
    34:     800.60 cm**-1
    35:     822.53 cm**-1
    36:     884.88 cm**-1
    37:     922.21 cm**-1
    38:     943.29 cm**-1
    39:     961.18 cm**-1
    40:     974.81 cm**-1
    41:     986.90 cm**-1
    42:    1015.76 cm**-1
    43:    1031.60 cm**-1
    44:    1033.17 cm**-1
    45:    1042.07 cm**-1
    46:    1080.87 cm**-1
    47:    1093.14 cm**-1
    48:    1096.34 cm**-1
    49:    1109.50 cm**-1
    50:    1129.22 cm**-1
    51:    1148.39 cm**-1
    52:    1154.71 cm**-1
    53:    1176.32 cm**-1
    54:    1222.09 cm**-1
    55:    1280.69 cm**-1
    56:    1289.37 cm**-1
    57:    1311.59 cm**-1
    58:    1330.56 cm**-1
    59:    1354.41 cm**-1
    60:    1390.76 cm**-1
    61:    1410.62 cm**-1
    62:    1423.82 cm**-1
    63:    1437.64 cm**-1
    64:    1443.64 cm**-1
    65:    1450.33 cm**-1
    66:    1459.19 cm**-1
    67:    1466.93 cm**-1
    68:    1481.64 cm**-1
    69:    1502.49 cm**-1
    70:    1502.58 cm**-1
    71:    1509.31 cm**-1
    72:    1509.41 cm**-1
    73:    1509.78 cm**-1
    74:    1521.88 cm**-1
    75:    1522.75 cm**-1
    76:    1526.77 cm**-1
    77:    1533.08 cm**-1
    78:    1540.68 cm**-1
    79:    1777.55 cm**-1
    80:    1804.71 cm**-1
    81:    1876.88 cm**-1
    82:    3092.65 cm**-1
    83:    3094.92 cm**-1
    84:    3097.38 cm**-1
    85:    3105.42 cm**-1
    86:    3115.78 cm**-1
    87:    3131.56 cm**-1
    88:    3135.78 cm**-1
    89:    3167.03 cm**-1
    90:    3168.37 cm**-1
    91:    3174.60 cm**-1
    92:    3182.27 cm**-1
    93:    3196.83 cm**-1
    94:    3205.80 cm**-1
    95:    3208.12 cm**-1
    96:    3209.16 cm**-1
    97:    3214.70 cm**-1
    98:    3222.58 cm**-1
    99:    3229.89 cm**-1
   100:    3264.40 cm**-1
   101:    3300.59 cm**-1

IR SPECTRUM
-----------

 Mode   freq       eps      Int      T**2         TX        TY        TZ
       cm**-1   L/(mol*cm) km/mol    a.u.
----------------------------------------------------------------------------
  6:     19.76   0.000031    0.16  0.000495  ( 0.021106 -0.003515 -0.006113)
  7:     26.20   0.000128    0.65  0.001521  (-0.004725 -0.011039  0.037105)
  8:     33.90   0.000012    0.06  0.000108  (-0.003331 -0.008599 -0.004763)
  9:     36.78   0.000493    2.49  0.004180  (-0.013559  0.022231 -0.059178)
 10:     50.12   0.000081    0.41  0.000507  (-0.002810  0.000856 -0.022315)
 11:     67.87   0.000110    0.56  0.000506  (-0.002067  0.004898 -0.021858)
 12:     95.40   0.000042    0.21  0.000137  (-0.000748  0.011168 -0.003392)
 13:    110.91   0.000282    1.43  0.000794  (-0.024449 -0.009192 -0.010566)
 14:    136.30   0.000059    0.30  0.000135  (-0.001468 -0.008414  0.007858)
 15:    178.72   0.000070    0.35  0.000122  (-0.001501 -0.007953  0.007531)
 16:    189.83   0.000783    3.96  0.001287  (-0.015892  0.009267 -0.030802)
 17:    207.76   0.000043    0.22  0.000064  ( 0.004647  0.005370  0.003695)
 18:    222.84   0.000377    1.90  0.000528  ( 0.021022  0.009055  0.001916)
 19:    245.02   0.001340    6.77  0.001707  (-0.029830 -0.026152  0.011539)
 20:    271.34   0.000113    0.57  0.000130  (-0.003276  0.008575 -0.006797)
 21:    290.60   0.000241    1.22  0.000259  ( 0.000260  0.014912  0.006007)
 22:    341.77   0.000093    0.47  0.000085  (-0.000877 -0.000163 -0.009181)
 23:    385.18   0.000252    1.27  0.000204  ( 0.002326 -0.007907 -0.011656)
 24:    412.11   0.000431    2.18  0.000327  ( 0.002032 -0.011003  0.014190)
 25:    436.92   0.000609    3.08  0.000435  (-0.003122  0.020604 -0.000695)
 26:    475.22   0.000654    3.31  0.000429  ( 0.020046  0.005181  0.000877)
 27:    484.50   0.000829    4.19  0.000534  ( 0.010557 -0.013419  0.015567)
 28:    541.66   0.000152    0.77  0.000088  ( 0.007564 -0.000404  0.005503)
 29:    560.12   0.002364   11.94  0.001317  ( 0.035146 -0.003108  0.008482)
 30:    605.25   0.002227   11.25  0.001148  (-0.011920 -0.029804 -0.010849)
 31:    624.78   0.001142    5.77  0.000570  (-0.005393  0.007233 -0.022110)
 32:    672.01   0.000896    4.53  0.000416  ( 0.000282 -0.019789 -0.004949)
 33:    749.17   0.000310    1.56  0.000129  (-0.010914 -0.000035 -0.003132)
 34:    800.60   0.000194    0.98  0.000076  (-0.005362 -0.002872 -0.006225)
 35:    822.53   0.000279    1.41  0.000106  (-0.001932 -0.001051  0.010058)
 36:    884.88   0.003081   15.57  0.001087  (-0.016100  0.011001 -0.026579)
 37:    922.21   0.001164    5.88  0.000394  ( 0.008894 -0.017528  0.002749)
 38:    943.29   0.007885   39.85  0.002608  ( 0.046775 -0.002423  0.020365)
 39:    961.18   0.002491   12.59  0.000809  (-0.025016  0.011162  0.007642)
 40:    974.81   0.000821    4.15  0.000263  ( 0.016086  0.000547 -0.001938)
 41:    986.90   0.000201    1.01  0.000063  (-0.007386 -0.002943  0.000460)
 42:   1015.76   0.000314    1.58  0.000096  (-0.003944 -0.008660 -0.002405)
 43:   1031.60   0.000353    1.78  0.000107  (-0.007330 -0.006242 -0.003759)
 44:   1033.17   0.000903    4.56  0.000273  (-0.005770  0.007996 -0.013250)
 45:   1042.07   0.000512    2.59  0.000153  ( 0.008348 -0.006666 -0.006270)
 46:   1080.87   0.002975   15.04  0.000859  (-0.013025 -0.024889 -0.008359)
 47:   1093.14   0.000167    0.85  0.000048  ( 0.005812 -0.002983 -0.002251)
 48:   1096.34   0.001747    8.83  0.000497  (-0.003423  0.007135 -0.020851)
 49:   1109.50   0.018520   93.59  0.005209  (-0.036678 -0.060065 -0.015993)
 50:   1129.22   0.000068    0.34  0.000019  ( 0.003666 -0.001794  0.001478)
 51:   1148.39   0.001026    5.19  0.000279  ( 0.002362 -0.016514  0.000771)
 52:   1154.71   0.003609   18.24  0.000975  ( 0.025493  0.013947 -0.011442)
 53:   1176.32   0.001281    6.47  0.000340  ( 0.007046 -0.016230 -0.005162)
 54:   1222.09   0.000077    0.39  0.000020  (-0.003353  0.002838 -0.000650)
 55:   1280.69   0.000561    2.83  0.000137  (-0.003529 -0.009614  0.005635)
 56:   1289.37   0.000522    2.64  0.000126  ( 0.008972  0.004812 -0.004763)
 57:   1311.59   0.007147   36.12  0.001701  (-0.030060 -0.028093 -0.002779)
 58:   1330.56   0.097592  493.19  0.022889  ( 0.113191  0.099121  0.015862)
 59:   1354.41   0.001887    9.54  0.000435  (-0.004481 -0.019459 -0.006010)
 60:   1390.76   0.000308    1.56  0.000069  (-0.005767 -0.004735  0.003675)
 61:   1410.62   0.001365    6.90  0.000302  (-0.015236 -0.007205 -0.004222)
 62:   1423.82   0.000322    1.63  0.000071  (-0.005994 -0.004751  0.003490)
 63:   1437.64   0.013082   66.11  0.002840  (-0.029973 -0.041494 -0.014819)
 64:   1443.64   0.009682   48.93  0.002093  (-0.020648 -0.039764  0.009243)
 65:   1450.33   0.001885    9.53  0.000406  (-0.014571 -0.013895  0.000400)
 66:   1459.19   0.004761   24.06  0.001018  (-0.006123 -0.027012 -0.015843)
 67:   1466.93   0.008227   41.58  0.001750  ( 0.019466  0.036250  0.007564)
 68:   1481.64   0.000535    2.70  0.000113  (-0.008159 -0.006169 -0.002825)
 69:   1502.49   0.000970    4.90  0.000201  ( 0.012095 -0.007381 -0.000776)
 70:   1502.58   0.002476   12.51  0.000514  (-0.016616  0.014154  0.006148)
 71:   1509.31   0.001860    9.40  0.000385  ( 0.017663 -0.000547  0.008501)
 72:   1509.41   0.003309   16.72  0.000684  ( 0.008078 -0.004163  0.024525)
 73:   1509.78   0.000304    1.54  0.000063  ( 0.002119  0.004939 -0.005831)
 74:   1521.88   0.004622   23.36  0.000948  (-0.003136  0.029200 -0.009234)
 75:   1522.75   0.002918   14.75  0.000598  ( 0.000531 -0.007661 -0.023218)
 76:   1526.77   0.001031    5.21  0.000211  ( 0.006104 -0.004887 -0.012227)
 77:   1533.08   0.002292   11.58  0.000467  ( 0.020295 -0.005844 -0.004537)
 78:   1540.68   0.001118    5.65  0.000226  (-0.011008 -0.007431  0.007070)
 79:   1777.55   0.004878   24.65  0.000856  ( 0.012912 -0.010866 -0.023909)
 80:   1804.71   0.001026    5.19  0.000177  ( 0.009030 -0.007746 -0.005990)
 81:   1876.88   0.067946  343.37  0.011297  (-0.101334  0.024544  0.020646)
 82:   3092.65   0.005943   30.03  0.000600  (-0.022890 -0.008639 -0.001055)
 83:   3094.92   0.003500   17.69  0.000353  ( 0.004594  0.010031 -0.015204)
 84:   3097.38   0.009120   46.09  0.000919  ( 0.020239 -0.015945 -0.015968)
 85:   3105.42   0.000845    4.27  0.000085  ( 0.000363  0.007120  0.005836)
 86:   3115.78   0.005994   30.29  0.000600  (-0.010291 -0.007609  0.020893)
 87:   3131.56   0.002104   10.64  0.000210  ( 0.007882 -0.011496 -0.003929)
 88:   3135.78   0.000491    2.48  0.000049  ( 0.001523 -0.006537 -0.001961)
 89:   3167.03   0.000188    0.95  0.000018  ( 0.000634 -0.003127  0.002881)
 90:   3168.37   0.004152   20.98  0.000409  ( 0.004139 -0.012110  0.015658)
 91:   3174.60   0.001412    7.14  0.000139  (-0.010371  0.000331 -0.005579)
 92:   3182.27   0.001768    8.94  0.000173  ( 0.005106 -0.011734 -0.003107)
 93:   3196.83   0.001787    9.03  0.000174  ( 0.003479 -0.003739  0.012182)
 94:   3205.80   0.001317    6.65  0.000128  (-0.002919  0.008564  0.006805)
 95:   3208.12   0.000940    4.75  0.000091  ( 0.001491  0.008240 -0.004612)
 96:   3209.16   0.002715   13.72  0.000264  (-0.002615  0.013726  0.008292)
 97:   3214.70   0.003941   19.92  0.000383  ( 0.004746  0.015556  0.010865)
 98:   3222.58   0.002727   13.78  0.000264  (-0.014694 -0.006819 -0.001296)
 99:   3229.89   0.000108    0.54  0.000010  ( 0.000494 -0.000446  0.003155)
100:   3264.40   0.000257    1.30  0.000025  ( 0.002903  0.003943  0.000789)
101:   3300.59   0.001276    6.45  0.000121  ( 0.001633  0.010454 -0.002954)

--------------------------
THERMOCHEMISTRY AT 298.15K
--------------------------

Temperature         ...   298.15 K
Pressure            ...     1.00 atm
Total Mass          ...   196.29 AMU
Quasi RRHO          ...     True
Cut-Off Frequency   ...     1.00 cm^-1

Throughout the following assumptions are being made:
  (1) The electronic state is orbitally nondegenerate
  (2) There are no thermally accessible electronically excited states
  (3) Hindered rotations indicated by low frequency modes are not
      treated as such but are treated as vibrations and this may
      cause some error
  (4) All equations used are the standard statistical mechanics
      equations for an ideal gas
  (5) All vibrations are strictly harmonic

freq.      19.76  E(vib)   ...       0.56
freq.      26.20  E(vib)   ...       0.56
freq.      33.90  E(vib)   ...       0.55
freq.      36.78  E(vib)   ...       0.54
freq.      50.12  E(vib)   ...       0.52
freq.      67.87  E(vib)   ...       0.50
freq.      95.40  E(vib)   ...       0.47
freq.     110.91  E(vib)   ...       0.45
freq.     136.30  E(vib)   ...       0.42
freq.     178.72  E(vib)   ...       0.37
freq.     189.83  E(vib)   ...       0.36
freq.     207.76  E(vib)   ...       0.34
freq.     222.84  E(vib)   ...       0.33
freq.     245.02  E(vib)   ...       0.31
freq.     271.34  E(vib)   ...       0.29
freq.     290.60  E(vib)   ...       0.27
freq.     341.77  E(vib)   ...       0.23
freq.     385.18  E(vib)   ...       0.20
freq.     412.11  E(vib)   ...       0.19
freq.     436.92  E(vib)   ...       0.17
freq.     475.22  E(vib)   ...       0.15
freq.     484.50  E(vib)   ...       0.15
freq.     541.66  E(vib)   ...       0.12
freq.     560.12  E(vib)   ...       0.12
freq.     605.25  E(vib)   ...       0.10
freq.     624.78  E(vib)   ...       0.09
freq.     672.01  E(vib)   ...       0.08
freq.     749.17  E(vib)   ...       0.06
freq.     800.60  E(vib)   ...       0.05
freq.     822.53  E(vib)   ...       0.05
freq.     884.88  E(vib)   ...       0.04
freq.     922.21  E(vib)   ...       0.03
freq.     943.29  E(vib)   ...       0.03
freq.     961.18  E(vib)   ...       0.03
freq.     974.81  E(vib)   ...       0.03
freq.     986.90  E(vib)   ...       0.02
freq.    1015.76  E(vib)   ...       0.02
freq.    1031.60  E(vib)   ...       0.02
freq.    1033.17  E(vib)   ...       0.02
freq.    1042.07  E(vib)   ...       0.02
freq.    1080.87  E(vib)   ...       0.02
freq.    1093.14  E(vib)   ...       0.02
freq.    1096.34  E(vib)   ...       0.02
freq.    1109.50  E(vib)   ...       0.02
freq.    1129.22  E(vib)   ...       0.01
freq.    1148.39  E(vib)   ...       0.01
freq.    1154.71  E(vib)   ...       0.01
freq.    1176.32  E(vib)   ...       0.01
freq.    1222.09  E(vib)   ...       0.01
freq.    1280.69  E(vib)   ...       0.01
freq.    1289.37  E(vib)   ...       0.01
freq.    1311.59  E(vib)   ...       0.01
freq.    1330.56  E(vib)   ...       0.01
freq.    1354.41  E(vib)   ...       0.01
freq.    1390.76  E(vib)   ...       0.00
freq.    1410.62  E(vib)   ...       0.00
freq.    1423.82  E(vib)   ...       0.00
freq.    1437.64  E(vib)   ...       0.00
freq.    1443.64  E(vib)   ...       0.00
freq.    1450.33  E(vib)   ...       0.00
freq.    1459.19  E(vib)   ...       0.00
freq.    1466.93  E(vib)   ...       0.00
freq.    1481.64  E(vib)   ...       0.00
freq.    1502.49  E(vib)   ...       0.00
freq.    1502.58  E(vib)   ...       0.00
freq.    1509.31  E(vib)   ...       0.00
freq.    1509.41  E(vib)   ...       0.00
freq.    1509.78  E(vib)   ...       0.00
freq.    1521.88  E(vib)   ...       0.00
freq.    1522.75  E(vib)   ...       0.00
freq.    1526.77  E(vib)   ...       0.00
freq.    1533.08  E(vib)   ...       0.00
freq.    1540.68  E(vib)   ...       0.00
freq.    1777.55  E(vib)   ...       0.00
freq.    1804.71  E(vib)   ...       0.00
freq.    1876.88  E(vib)   ...       0.00
freq.    3092.65  E(vib)   ...       0.00
freq.    3094.92  E(vib)   ...       0.00
freq.    3097.38  E(vib)   ...       0.00
freq.    3105.42  E(vib)   ...       0.00
freq.    3115.78  E(vib)   ...       0.00
freq.    3131.56  E(vib)   ...       0.00
freq.    3135.78  E(vib)   ...       0.00
freq.    3167.03  E(vib)   ...       0.00
freq.    3168.37  E(vib)   ...       0.00
freq.    3174.60  E(vib)   ...       0.00
freq.    3182.27  E(vib)   ...       0.00
freq.    3196.83  E(vib)   ...       0.00
freq.    3205.80  E(vib)   ...       0.00
freq.    3208.12  E(vib)   ...       0.00
freq.    3209.16  E(vib)   ...       0.00
freq.    3214.70  E(vib)   ...       0.00
freq.    3222.58  E(vib)   ...       0.00
freq.    3229.89  E(vib)   ...       0.00
freq.    3264.40  E(vib)   ...       0.00
freq.    3300.59  E(vib)   ...       0.00

------------
INNER ENERGY
------------

The inner energy is: U= E(el) + E(ZPE) + E(vib) + E(rot) + E(trans)
    E(el)   - is the total energy from the electronic structure calculation
              = E(kin-el) + E(nuc-el) + E(el-el) + E(nuc-nuc)
    E(ZPE)  - the the zero temperature vibrational energy from the frequency calculation
    E(vib)  - the the finite temperature correction to E(ZPE) due to population
              of excited vibrational states
    E(rot)  - is the rotational thermal energy
    E(trans)- is the translational thermal energy

Summary of contributions to the inner energy U:
Electronic energy                ...   -112.54141478 Eh
Zero point energy                ...      0.30479259 Eh     191.26 kcal/mol
Thermal vibrational correction   ...      0.01446646 Eh       9.08 kcal/mol
Thermal rotational correction    ...      0.00141627 Eh       0.89 kcal/mol
Thermal translational correction ...      0.00141627 Eh       0.89 kcal/mol
-----------------------------------------------------------------------
Total thermal energy                   -112.21932318 Eh

Summary of corrections to the electronic energy:
(perhaps to be used in another calculation)
Total thermal correction                  0.01729900 Eh      10.86 kcal/mol
Non-thermal (ZPE) correction              0.30479259 Eh     191.26 kcal/mol
-----------------------------------------------------------------------
Total correction                          0.32209160 Eh     202.12 kcal/mol

--------
ENTHALPY
--------

The enthalpy is H = U + kB*T
                kB is Boltzmann's constant
Total thermal energy              ...   -112.21932318 Eh
Thermal Enthalpy correction       ...      0.00094421 Eh       0.59 kcal/mol
-----------------------------------------------------------------------
Total Enthalpy                    ...   -112.21837897 Eh

Note: Only C1 symmetry has been detected, increase convergence thresholds
      if your molecule has a higher symmetry. Symmetry factor of 1.0 is

Rotational constants in cm-1:     0.027834     0.012570     0.009496

                             ****ORCA TERMINATED NORMALLY****
TOTAL RUN TIME: 0 days 0 hours 44 minutes 34 seconds 928 msec
