                         Program Version 6.0.1  -  RELEASE   -
|  1> ! wB97X-3c OPT FREQ TightSCF
|  2> %pal
|  3>   nprocs 40
|  4> end
|  5> * xyz 0 1
|  6> C      3.692319     0.277651     0.370668
|  7> C      2.212136     0.241549     0.107492
|  8> C      1.389338     1.045725     0.802450
|  9> C     -0.097791     1.062862     0.566575
| 10> C     -0.609814    -0.330049     0.152341
| 11> C      0.169681    -0.842612    -1.073208
| 12> C      1.651576    -0.766347    -0.827166
| 13> O      2.418892    -1.545997    -1.453330
| 14> C     -2.111920    -0.325117    -0.099270
| 15> C     -2.657117     0.436769    -1.063272
| 16> C     -3.021431    -1.184932     0.740132
| 17> H      4.009174     1.268066     0.762782
| 18> H      3.954431    -0.505196     1.112671
| 19> H      4.256034     0.091529    -0.567553
| 20> H      1.795496     1.744769     1.524109
| 21> H     -0.312655     1.809968    -0.226868
| 22> H     -0.609676     1.388181     1.497967
| 23> H     -0.389238    -1.023645     0.994994
| 24> H     -0.063050    -0.232693    -1.971826
| 25> H     -0.120228    -1.896085    -1.280028
| 26> H     -3.729795     0.432497    -1.233601
| 27> H     -2.046742     1.073478    -1.694772
| 28> H     -3.757573    -0.544999     1.271255
| 29> H     -3.565918    -1.901551     0.089357
| 30> H     -2.456127    -1.765614     1.498099
| 31> *
| 32>
| 33>                          ****END OF INPUT****
 Total Charge           Charge          ....    0
 Multiplicity           Mult            ....    1
 Number of Electrons    NEL             ....   60
Dispersion correction           -0.029829004
FINAL SINGLE POINT ENERGY       -81.430646322694
Dispersion correction             ... done (  0.1 sec)
Dispersion correction           -0.030100506
FINAL SINGLE POINT ENERGY       -81.440452586541
Dispersion correction             ... done (  0.1 sec)
Dispersion correction           -0.030139457
FINAL SINGLE POINT ENERGY       -81.441882697044
Dispersion correction             ... done (  0.1 sec)
FINAL SINGLE POINT ENERGY       -81.442313861350
FINAL SINGLE POINT ENERGY       -81.442713866397
FINAL SINGLE POINT ENERGY       -81.442883008205
FINAL SINGLE POINT ENERGY       -81.443045418520
FINAL SINGLE POINT ENERGY       -81.443076775714
FINAL SINGLE POINT ENERGY       -81.443259155347
FINAL SINGLE POINT ENERGY       -81.443624467694
FINAL SINGLE POINT ENERGY       -81.447103756647
FINAL SINGLE POINT ENERGY       -81.447774900722
FINAL SINGLE POINT ENERGY       -81.448351478417
FINAL SINGLE POINT ENERGY       -81.448654091717
FINAL SINGLE POINT ENERGY       -81.448943175332
FINAL SINGLE POINT ENERGY       -81.449036185043
FINAL SINGLE POINT ENERGY       -81.449057732965
Dispersion correction             ... done (  0.1 sec)
Dispersion correction           -0.030385127
FINAL SINGLE POINT ENERGY       -81.449062889327
Dispersion correction             ... done (  0.1 sec)
Dispersion correction           -0.030385966
FINAL SINGLE POINT ENERGY       -81.449063989890
Dispersion correction             ... done (  0.1 sec)
                    ***********************HURRAY********************

CARTESIAN COORDINATES (ANGSTROEM)
---------------------------------
  C      3.675340    0.167938    0.366194
  C      2.195192    0.154979    0.182456
  C      1.339068    0.760159    1.003790
  C     -0.146896    0.731047    0.861650
  C     -0.625377   -0.425907   -0.009297
  C      0.196961   -0.460028   -1.282328
  C      1.673746   -0.557505   -1.008494
  O      2.416100   -1.154430   -1.754202
  C     -2.117176   -0.383174   -0.225038
  C     -2.678413   -0.233887   -1.417229
  C     -2.952751   -0.529341    1.010536
  H      3.952511    0.730803    1.254255
  H      4.057140   -0.847500    0.457312
  H      4.166147    0.606835   -0.500989
  H      1.734121    1.318844    1.846049
  H     -0.487687    1.678345    0.430210
  H     -0.592381    0.675808    1.854578
  H     -0.412991   -1.347831    0.545057
  H      0.045338    0.463584   -1.848909
  H     -0.077558   -1.289643   -1.929855
  H     -3.754993   -0.214722   -1.523059
  H     -2.100887   -0.131569   -2.324649
  H     -4.006901   -0.625990    0.762116
  H     -2.653510   -1.410241    1.579993
  H     -2.844141    0.331634    1.669849

 Multiplicity           Mult            ....    1
 Number of Electrons    NEL             ....   60
 Basis Dimension        Dim             ....  213

ORBITAL ENERGIES
----------------

  NO   OCC          E(Eh)            E(eV)
   0   2.0000      -1.167240       -31.7622
   1   2.0000      -1.007653       -27.4196
   2   2.0000      -0.958475       -26.0814
   3   2.0000      -0.907963       -24.7069
   4   2.0000      -0.879408       -23.9299
   5   2.0000      -0.827288       -22.5116
   6   2.0000      -0.822543       -22.3825
   7   2.0000      -0.754802       -20.5392
   8   2.0000      -0.732770       -19.9397
   9   2.0000      -0.657074       -17.8799
  10   2.0000      -0.633875       -17.2486
  11   2.0000      -0.609970       -16.5981
  12   2.0000      -0.593927       -16.1616
  13   2.0000      -0.573991       -15.6191
  14   2.0000      -0.559114       -15.2143
  15   2.0000      -0.557306       -15.1651
  16   2.0000      -0.544093       -14.8055
  17   2.0000      -0.532271       -14.4838
  18   2.0000      -0.530972       -14.4485
  19   2.0000      -0.523001       -14.2316
  20   2.0000      -0.495843       -13.4926
  21   2.0000      -0.491614       -13.3775
  22   2.0000      -0.486176       -13.2295
  23   2.0000      -0.478262       -13.0142
  24   2.0000      -0.451208       -12.2780
  25   2.0000      -0.445083       -12.1113
  26   2.0000      -0.441966       -12.0265
  27   2.0000      -0.362732        -9.8705
  28   2.0000      -0.359479        -9.7819
  29   2.0000      -0.354962        -9.6590
  30   0.0000       0.030139         0.8201
  31   0.0000       0.078582         2.1383
  32   0.0000       0.082646         2.2489
  33   0.0000       0.094834         2.5806
  34   0.0000       0.099764         2.7147

MULLIKEN ATOMIC CHARGES
-----------------------
   0 C :   -0.035338
   1 C :   -0.095014
   2 C :    0.024991
   3 C :   -0.042613
   4 C :   -0.112316
   5 C :   -0.049609
   6 C :    0.180029
   7 O :   -0.315571
   8 C :   -0.088310
   9 C :   -0.009111
  10 C :   -0.047217
  11 H :    0.025904
  12 H :    0.052649
  13 H :    0.050509
  14 H :    0.021827
  15 H :    0.057718
  16 H :    0.052663
  17 H :    0.054955
  18 H :    0.063449
  19 H :    0.062979
  20 H :    0.019529
  21 H :    0.019740
  22 H :    0.032045
  23 H :    0.038602
  24 H :    0.037510
Sum of atomic charges:   -0.0000000

LOEWDIN ATOMIC CHARGES
----------------------
   0 C :   -0.100152
   1 C :   -0.058401
   2 C :   -0.002866
   3 C :   -0.074647
   4 C :   -0.064902
   5 C :   -0.064400
   6 C :   -0.000156
   7 O :   -0.129932
   8 C :   -0.043006
   9 C :   -0.075598
  10 C :   -0.103252
  11 H :    0.048071
  12 H :    0.057080
  13 H :    0.056160
  14 H :    0.047393
  15 H :    0.057522
  16 H :    0.052779
  17 H :    0.056587
  18 H :    0.059645
  19 H :    0.062372
  20 H :    0.035831
  21 H :    0.033052
  22 H :    0.052996
  23 H :    0.050589
  24 H :    0.047235

  Mayer bond orders larger than 0.100000
B(  0-C ,  1-C ) :   1.0424 B(  0-C , 11-H ) :   0.9902 B(  0-C , 12-H ) :   0.9703
B(  0-C , 13-H ) :   0.9713 B(  1-C ,  2-C ) :   1.8211 B(  1-C ,  6-C ) :   1.0844
B(  2-C ,  3-C ) :   1.0410 B(  2-C , 14-H ) :   0.9849 B(  3-C ,  4-C ) :   0.9555
B(  3-C , 15-H ) :   0.9652 B(  3-C , 16-H ) :   0.9871 B(  4-C ,  5-C ) :   0.9823
B(  4-C ,  8-C ) :   1.0561 B(  4-C , 17-H ) :   0.9733 B(  5-C ,  6-C ) :   1.0269
B(  5-C , 18-H ) :   0.9591 B(  5-C , 19-H ) :   0.9808 B(  6-C ,  7-O ) :   1.8860
B(  8-C ,  9-C ) :   1.9414 B(  8-C , 10-C ) :   1.0259 B(  9-C , 20-H ) :   0.9821
B(  9-C , 21-H ) :   0.9873 B( 10-C , 22-H ) :   0.9910 B( 10-C , 23-H ) :   0.9799
B( 10-C , 24-H ) :   0.9769

Dispersion correction           -0.030386012
FINAL SINGLE POINT ENERGY       -81.449064270095

DIPOLE MOMENT
-------------

Method             : SCF
Type of density    : Electron Density
Multiplicity       :   1
Irrep              :   0
Energy             :   -81.4186782579564294 Eh
Relativity type    :
Basis              : AO
                                X                 Y                 Z
Electronic contribution:      5.167221733      -1.256232994      -3.574295770
Nuclear contribution   :     -5.984208783       1.950429593       4.638410544
                        -----------------------------------------
Total Dipole Moment    :     -0.816987050       0.694196599       1.064114774
                        -----------------------------------------
Magnitude (a.u.)       :      1.510535339
Magnitude (Debye)      :      3.839475703

VIBRATIONAL FREQUENCIES
-----------------------

Scaling factor for frequencies =  1.000000000  (already applied!)

     0:       0.00 cm**-1
     1:       0.00 cm**-1
     2:       0.00 cm**-1
     3:       0.00 cm**-1
     4:       0.00 cm**-1
     5:       0.00 cm**-1
     6:      47.34 cm**-1
     7:      77.44 cm**-1
     8:     113.85 cm**-1
     9:     166.15 cm**-1
    10:     168.97 cm**-1
    11:     197.67 cm**-1
    12:     258.23 cm**-1
    13:     304.45 cm**-1
    14:     313.32 cm**-1
    15:     331.22 cm**-1
    16:     349.17 cm**-1
    17:     411.69 cm**-1
    18:     493.06 cm**-1
    19:     498.19 cm**-1
    20:     557.15 cm**-1
    21:     581.64 cm**-1
    22:     661.37 cm**-1
    23:     702.70 cm**-1
    24:     739.32 cm**-1
    25:     749.10 cm**-1
    26:     836.34 cm**-1
    27:     908.29 cm**-1
    28:     937.28 cm**-1
    29:     944.84 cm**-1
    30:     948.08 cm**-1
    31:    1004.49 cm**-1
    32:    1023.78 cm**-1
    33:    1039.41 cm**-1
    34:    1064.65 cm**-1
    35:    1090.75 cm**-1
    36:    1102.59 cm**-1
    37:    1112.67 cm**-1
    38:    1166.56 cm**-1
    39:    1182.25 cm**-1
    40:    1199.47 cm**-1
    41:    1267.21 cm**-1
    42:    1299.28 cm**-1
    43:    1317.03 cm**-1
    44:    1337.66 cm**-1
    45:    1361.81 cm**-1
    46:    1415.32 cm**-1
    47:    1429.25 cm**-1
    48:    1443.53 cm**-1
    49:    1456.34 cm**-1
    50:    1467.20 cm**-1
    51:    1478.87 cm**-1
    52:    1496.30 cm**-1
    53:    1501.92 cm**-1
    54:    1512.90 cm**-1
    55:    1517.06 cm**-1
    56:    1521.64 cm**-1
    57:    1526.08 cm**-1
    58:    1774.29 cm**-1
    59:    1779.58 cm**-1
    60:    1838.17 cm**-1
    61:    3065.17 cm**-1
    62:    3085.51 cm**-1
    63:    3099.82 cm**-1
    64:    3103.44 cm**-1
    65:    3116.42 cm**-1
    66:    3158.73 cm**-1
    67:    3184.03 cm**-1
    68:    3193.13 cm**-1
    69:    3204.25 cm**-1
    70:    3211.26 cm**-1
    71:    3215.69 cm**-1
    72:    3219.48 cm**-1
    73:    3220.52 cm**-1
    74:    3313.50 cm**-1

IR SPECTRUM
-----------

 Mode   freq       eps      Int      T**2         TX        TY        TZ
       cm**-1   L/(mol*cm) km/mol    a.u.
----------------------------------------------------------------------------
  6:     47.34   0.000190    0.96  0.001252  ( 0.003530  0.024912 -0.024888)
  7:     77.44   0.000142    0.72  0.000571  ( 0.000845  0.022129 -0.008970)
  8:    113.85   0.000479    2.42  0.001312  ( 0.014752  0.029398 -0.015181)
  9:    166.15   0.000106    0.53  0.000199  (-0.002252 -0.009449  0.010212)
 10:    168.97   0.000090    0.45  0.000165  (-0.010773  0.006602 -0.002408)
 11:    197.67   0.000009    0.04  0.000013  (-0.001409 -0.002322 -0.002460)
 12:    258.23   0.000242    1.22  0.000292  ( 0.003460  0.003871 -0.016286)
 13:    304.45   0.000991    5.01  0.001016  ( 0.013125  0.021670  0.019337)
 14:    313.32   0.000179    0.90  0.000178  ( 0.004214 -0.008627  0.009259)
 15:    331.22   0.000214    1.08  0.000201  (-0.000192  0.007691 -0.011925)
 16:    349.17   0.000364    1.84  0.000325  ( 0.002549 -0.017089  0.005164)
 17:    411.69   0.001148    5.80  0.000870  (-0.025971 -0.006971 -0.012122)
 18:    493.06   0.000762    3.85  0.000482  (-0.015670 -0.013750  0.006890)
 19:    498.19   0.000405    2.05  0.000254  ( 0.007573 -0.010432 -0.009365)
 20:    557.15   0.001364    6.89  0.000764  ( 0.009062  0.024175  0.009860)
 21:    581.64   0.001253    6.33  0.000672  ( 0.021017 -0.005172  0.014278)
 22:    661.37   0.000057    0.29  0.000027  (-0.000882  0.004929 -0.001415)
 23:    702.70   0.000443    2.24  0.000197  (-0.002182  0.007160 -0.011855)
 24:    739.32   0.001159    5.86  0.000489  (-0.006277 -0.014700 -0.015295)
 25:    749.10   0.000263    1.33  0.000109  (-0.002517 -0.000801 -0.010122)
 26:    836.34   0.000757    3.83  0.000283  (-0.001813  0.015543 -0.006138)
 27:    908.29   0.000298    1.50  0.000102  (-0.003163 -0.007892 -0.005478)
 28:    937.28   0.000322    1.63  0.000107  ( 0.004907 -0.004134  0.008126)
 29:    944.84   0.004231   21.38  0.001397  ( 0.000845  0.037102 -0.004484)
 30:    948.08   0.006431   32.50  0.002117  ( 0.001303 -0.045776 -0.004429)
 31:   1004.49   0.001012    5.11  0.000314  ( 0.017091 -0.000185  0.004712)
 32:   1023.78   0.000082    0.41  0.000025  ( 0.003910 -0.002970 -0.000875)
 33:   1039.41   0.000607    3.07  0.000182  ( 0.007799  0.002176  0.010801)
 34:   1064.65   0.001438    7.27  0.000421  ( 0.017015 -0.011446 -0.000953)
 35:   1090.75   0.000320    1.62  0.000091  (-0.001372  0.005125 -0.007956)
 36:   1102.59   0.000740    3.74  0.000209  ( 0.013081  0.002110 -0.005811)
 37:   1112.67   0.002196   11.10  0.000616  ( 0.006638 -0.014108 -0.019309)
 38:   1166.56   0.004973   25.13  0.001330  ( 0.026966  0.006646  0.023644)
 39:   1182.25   0.001017    5.14  0.000268  ( 0.010905 -0.004719 -0.011279)
 40:   1199.47   0.001544    7.80  0.000402  (-0.017241 -0.001643  0.010092)
 41:   1267.21   0.000373    1.88  0.000092  ( 0.009438 -0.001400 -0.000872)
 42:   1299.28   0.001629    8.23  0.000391  ( 0.002112  0.007897  0.018013)
 43:   1317.03   0.000539    2.73  0.000128  (-0.006625 -0.004883 -0.007749)
 44:   1337.66   0.001643    8.30  0.000383  (-0.017516 -0.007625 -0.004276)
 45:   1361.81   0.000552    2.79  0.000126  ( 0.009578  0.005358  0.002453)
 46:   1415.32   0.000287    1.45  0.000063  ( 0.000561  0.005148  0.006035)
 47:   1429.25   0.006271   31.69  0.001369  ( 0.016223  0.016009  0.029151)
 48:   1443.53   0.003181   16.07  0.000688  ( 0.024892  0.005407 -0.006227)
 49:   1456.34   0.000539    2.72  0.000116  (-0.007226  0.007939 -0.000503)
 50:   1467.20   0.003839   19.40  0.000817  ( 0.005389  0.009550  0.026387)
 51:   1478.87   0.000553    2.79  0.000117  (-0.010439  0.002537 -0.001133)
 52:   1496.30   0.001110    5.61  0.000231  ( 0.004082  0.004501  0.013949)
 53:   1501.92   0.001930    9.75  0.000401  ( 0.002057  0.017578 -0.009369)
 54:   1512.90   0.003494   17.66  0.000721  (-0.014413  0.022591 -0.001586)
 55:   1517.06   0.001289    6.51  0.000265  (-0.009607 -0.012113 -0.005113)
 56:   1521.64   0.003613   18.26  0.000741  ( 0.000724  0.015014  0.022694)
 57:   1526.08   0.003781   19.11  0.000773  ( 0.024581 -0.001653  0.012893)
 58:   1774.29   0.005548   28.04  0.000976  ( 0.014854 -0.002838  0.027333)
 59:   1779.58   0.000091    0.46  0.000016  (-0.000405 -0.003556 -0.001788)
 60:   1838.17   0.064899  327.97  0.011018  (-0.064884  0.051700  0.064304)
 61:   3065.17   0.001932    9.76  0.000197  (-0.002151  0.010175 -0.009408)
 62:   3085.51   0.003562   18.00  0.000360  (-0.009184  0.016324  0.003064)
 63:   3099.82   0.001284    6.49  0.000129  ( 0.001269  0.006131 -0.009491)
 64:   3103.44   0.004618   23.34  0.000464  ( 0.008161  0.003949 -0.019549)
 65:   3116.42   0.004405   22.26  0.000441  ( 0.020210  0.002593  0.005090)
 66:   3158.73   0.002792   14.11  0.000276  (-0.006735 -0.004597  0.014468)
 67:   3184.03   0.001603    8.10  0.000157  (-0.003071  0.011956  0.002174)
 68:   3193.13   0.000896    4.53  0.000088  (-0.003675 -0.007765 -0.003704)
 69:   3204.25   0.000618    3.12  0.000060  (-0.000817 -0.006017  0.004830)
 70:   3211.26   0.001957    9.89  0.000190  (-0.013225 -0.001353 -0.003666)
 71:   3215.69   0.001814    9.17  0.000176  (-0.008105 -0.005921 -0.008676)
 72:   3219.48   0.001638    8.28  0.000159  (-0.010131  0.000268 -0.007489)
 73:   3220.52   0.002831   14.31  0.000274  ( 0.005831  0.008570  0.012918)
 74:   3313.50   0.000924    4.67  0.000087  (-0.008832 -0.000641  0.002927)

--------------------------
THERMOCHEMISTRY AT 298.15K
--------------------------

Temperature         ...   298.15 K
Pressure            ...     1.00 atm
Total Mass          ...   150.22 AMU
Quasi RRHO          ...     True
Cut-Off Frequency   ...     1.00 cm^-1

Throughout the following assumptions are being made:
  (1) The electronic state is orbitally nondegenerate
  (2) There are no thermally accessible electronically excited states
  (3) Hindered rotations indicated by low frequency modes are not
      treated as such but are treated as vibrations and this may
      cause some error
  (4) All equations used are the standard statistical mechanics
      equations for an ideal gas
  (5) All vibrations are strictly harmonic

freq.      47.34  E(vib)   ...       0.53
freq.      77.44  E(vib)   ...       0.49
freq.     113.85  E(vib)   ...       0.44
freq.     166.15  E(vib)   ...       0.39
freq.     168.97  E(vib)   ...       0.38
freq.     197.67  E(vib)   ...       0.35
freq.     258.23  E(vib)   ...       0.30
freq.     304.45  E(vib)   ...       0.26
freq.     313.32  E(vib)   ...       0.25
freq.     331.22  E(vib)   ...       0.24
freq.     349.17  E(vib)   ...       0.23
freq.     411.69  E(vib)   ...       0.19
freq.     493.06  E(vib)   ...       0.14
freq.     498.19  E(vib)   ...       0.14
freq.     557.15  E(vib)   ...       0.12
freq.     581.64  E(vib)   ...       0.11
freq.     661.37  E(vib)   ...       0.08
freq.     702.70  E(vib)   ...       0.07
freq.     739.32  E(vib)   ...       0.06
freq.     749.10  E(vib)   ...       0.06
freq.     836.34  E(vib)   ...       0.04
freq.     908.29  E(vib)   ...       0.03
freq.     937.28  E(vib)   ...       0.03
freq.     944.84  E(vib)   ...       0.03
freq.     948.08  E(vib)   ...       0.03
freq.    1004.49  E(vib)   ...       0.02
freq.    1023.78  E(vib)   ...       0.02
freq.    1039.41  E(vib)   ...       0.02
freq.    1064.65  E(vib)   ...       0.02
freq.    1090.75  E(vib)   ...       0.02
freq.    1102.59  E(vib)   ...       0.02
freq.    1112.67  E(vib)   ...       0.01
freq.    1166.56  E(vib)   ...       0.01
freq.    1182.25  E(vib)   ...       0.01
freq.    1199.47  E(vib)   ...       0.01
freq.    1267.21  E(vib)   ...       0.01
freq.    1299.28  E(vib)   ...       0.01
freq.    1317.03  E(vib)   ...       0.01
freq.    1337.66  E(vib)   ...       0.01
freq.    1361.81  E(vib)   ...       0.01
freq.    1415.32  E(vib)   ...       0.00
freq.    1429.25  E(vib)   ...       0.00
freq.    1443.53  E(vib)   ...       0.00
freq.    1456.34  E(vib)   ...       0.00
freq.    1467.20  E(vib)   ...       0.00
freq.    1478.87  E(vib)   ...       0.00
freq.    1496.30  E(vib)   ...       0.00
freq.    1501.92  E(vib)   ...       0.00
freq.    1512.90  E(vib)   ...       0.00
freq.    1517.06  E(vib)   ...       0.00
freq.    1521.64  E(vib)   ...       0.00
freq.    1526.08  E(vib)   ...       0.00
freq.    1774.29  E(vib)   ...       0.00
freq.    1779.58  E(vib)   ...       0.00
freq.    1838.17  E(vib)   ...       0.00
freq.    3065.17  E(vib)   ...       0.00
freq.    3085.51  E(vib)   ...       0.00
freq.    3099.82  E(vib)   ...       0.00
freq.    3103.44  E(vib)   ...       0.00
freq.    3116.42  E(vib)   ...       0.00
freq.    3158.73  E(vib)   ...       0.00
freq.    3184.03  E(vib)   ...       0.00
freq.    3193.13  E(vib)   ...       0.00
freq.    3204.25  E(vib)   ...       0.00
freq.    3211.26  E(vib)   ...       0.00
freq.    3215.69  E(vib)   ...       0.00
freq.    3219.48  E(vib)   ...       0.00
freq.    3220.52  E(vib)   ...       0.00
freq.    3313.50  E(vib)   ...       0.00

------------
INNER ENERGY
------------

The inner energy is: U= E(el) + E(ZPE) + E(vib) + E(rot) + E(trans)
    E(el)   - is the total energy from the electronic structure calculation
              = E(kin-el) + E(nuc-el) + E(el-el) + E(nuc-nuc)
    E(ZPE)  - the the zero temperature vibrational energy from the frequency calculation
    E(vib)  - the the finite temperature correction to E(ZPE) due to population
              of excited vibrational states
    E(rot)  - is the rotational thermal energy
    E(trans)- is the translational thermal energy

Summary of contributions to the inner energy U:
Electronic energy                ...    -81.44906427 Eh
Zero point energy                ...      0.22192961 Eh     139.26 kcal/mol
Thermal vibrational correction   ...      0.00833690 Eh       5.23 kcal/mol
Thermal rotational correction    ...      0.00141627 Eh       0.89 kcal/mol
Thermal translational correction ...      0.00141627 Eh       0.89 kcal/mol
-----------------------------------------------------------------------
Total thermal energy                    -81.21596521 Eh

Summary of corrections to the electronic energy:
(perhaps to be used in another calculation)
Total thermal correction                  0.01116945 Eh       7.01 kcal/mol
Non-thermal (ZPE) correction              0.22192961 Eh     139.26 kcal/mol
-----------------------------------------------------------------------
Total correction                          0.23309906 Eh     146.27 kcal/mol

--------
ENTHALPY
--------

The enthalpy is H = U + kB*T
                kB is Boltzmann's constant
Total thermal energy              ...    -81.21596521 Eh
Thermal Enthalpy correction       ...      0.00094421 Eh       0.59 kcal/mol
-----------------------------------------------------------------------
Total Enthalpy                    ...    -81.21502101 Eh

Note: Only C1 symmetry has been detected, increase convergence thresholds
      if your molecule has a higher symmetry. Symmetry factor of 1.0 is
      used for the rotational entropy correction.

Note: Rotational entropy computed according to Herzberg
Infrared and Raman Spectra, Chapter V,1, Van Nostrand Reinhold, 1945
Point Group:  C1, Symmetry Number:   1
Rotational constants in cm-1:     0.076525     0.022751     0.018643

Vibrational entropy computed according to the QRRHO of S. Grimme
Chem.Eur.J. 2012 18 9955 using a reference frequency of 100.0 cm-1

-------
ENTROPY
-------

The entropy contributions are T*S = T*(S(el)+S(vib)+S(rot)+S(trans))
     S(el)   - electronic entropy
     S(vib)  - vibrational entropy
     S(rot)  - rotational entropy
     S(trans)- translational entropy
The entropies will be listed as multiplied by the temperature to get
units of energy

Electronic entropy                ...      0.00000000 Eh      0.00 kcal/mol
Vibrational entropy               ...      0.01424819 Eh      8.94 kcal/mol
Rotational entropy                ...      0.01439015 Eh      9.03 kcal/mol

                             ****ORCA TERMINATED NORMALLY****
TOTAL RUN TIME: 0 days 0 hours 27 minutes 16 seconds 207 msec
