                         Program Version 6.0.1  -  RELEASE   -
|  1> ! wB97X-3c OPT FREQ TightSCF
|  2> %pal
|  3>   nprocs 40
|  4> end
|  5> * xyz 0 1
|  6> C     -3.423964    -1.544229    -1.042636
|  7> C     -3.105936    -0.466309    -0.320425
|  8> C     -2.074105     0.518994    -0.788516
|  9> S     -0.412290    -0.235194    -0.811665
| 10> S     -0.219870    -0.268305     1.314346
| 11> S      0.738080     1.639185     1.353971
| 12> C      2.423225     0.952276     1.459739
| 13> C      2.880153     0.483909     0.108450
| 14> C      3.188675    -0.793965    -0.129593
| 15> H     -2.934371    -1.745346    -1.990787
| 16> H     -4.181597    -2.233583    -0.684576
| 17> H     -3.622494    -0.284181     0.617255
| 18> H     -2.072972     1.407046    -0.121854
| 19> H     -2.328214     0.863906    -1.813082
| 20> H      2.457355     0.139879     2.217912
| 21> H      3.106052     1.758239     1.799429
| 22> H      2.952699     1.205720    -0.699663
| 23> H      3.119920    -1.544164     0.652180
| 24> H      3.509653    -1.098067    -1.120484
| 25> *
| 26>
| 27>                          ****END OF INPUT****
 Total Charge           Charge          ....    0
 Multiplicity           Mult            ....    1
 Number of Electrons    NEL             ....   52
Dispersion correction           -0.026491447
FINAL SINGLE POINT ENERGY       -70.808195795707
Dispersion correction             ... done (  0.1 sec)
Dispersion correction           -0.025782901
FINAL SINGLE POINT ENERGY       -70.822678486884
Dispersion correction             ... done (  0.0 sec)
Dispersion correction           -0.025042077
FINAL SINGLE POINT ENERGY       -70.826673790250
Dispersion correction             ... done (  0.1 sec)
FINAL SINGLE POINT ENERGY       -70.826926516124
FINAL SINGLE POINT ENERGY       -70.828009883666
FINAL SINGLE POINT ENERGY       -70.827467170573
FINAL SINGLE POINT ENERGY       -70.828319509214
FINAL SINGLE POINT ENERGY       -70.828655696086
FINAL SINGLE POINT ENERGY       -70.829650201942
FINAL SINGLE POINT ENERGY       -70.830487388786
FINAL SINGLE POINT ENERGY       -70.831101358533
FINAL SINGLE POINT ENERGY       -70.831200085163
Dispersion correction             ... done (  0.1 sec)
Dispersion correction           -0.025319707
FINAL SINGLE POINT ENERGY       -70.831218999929
Dispersion correction             ... done (  0.1 sec)
Dispersion correction           -0.025333784
FINAL SINGLE POINT ENERGY       -70.831225450958
Dispersion correction             ... done (  0.0 sec)
                    ***********************HURRAY********************

CARTESIAN COORDINATES (ANGSTROEM)
---------------------------------
  C     -4.099496   -1.142230   -1.083637
  C     -3.092817   -0.676886   -0.362868
  C     -1.952780    0.093550   -0.927194
  S     -0.335738   -0.709970   -0.694249
  S     -0.061656   -0.523894    1.328771
  S      0.714883    1.344177    1.646035
  C      2.508907    1.045487    1.521689
  C      2.943818    0.613628    0.168817
  C      3.489492   -0.565295   -0.079927
  H     -4.150116   -0.984908   -2.154418
  H     -4.908376   -1.696737   -0.627569
  H     -3.067262   -0.850418    0.707152
  H     -1.884364    1.091107   -0.494340
  H     -2.052575    0.206106   -2.006877
  H      2.796475    0.324222    2.283448
  H      2.943486    2.010800    1.787275
  H      2.768703    1.313318   -0.640835
  H      3.653686   -1.288240    0.709690
  H      3.785729   -0.848009   -1.080963

 Multiplicity           Mult            ....    1
 Number of Electrons    NEL             ....   52
 Basis Dimension        Dim             ....  167

ORBITAL ENERGIES
----------------

  NO   OCC          E(Eh)            E(eV)
   0   2.0000      -0.995166       -27.0798
   1   2.0000      -0.966047       -26.2875
   2   2.0000      -0.930658       -25.3245
   3   2.0000      -0.890701       -24.2372
   4   2.0000      -0.843833       -22.9618
   5   2.0000      -0.787127       -21.4188
   6   2.0000      -0.725386       -19.7388
   7   2.0000      -0.693276       -18.8650
   8   2.0000      -0.683254       -18.5923
   9   2.0000      -0.605409       -16.4740
  10   2.0000      -0.601030       -16.3549
  11   2.0000      -0.564954       -15.3732
  12   2.0000      -0.559883       -15.2352
  13   2.0000      -0.546575       -14.8731
  14   2.0000      -0.534791       -14.5524
  15   2.0000      -0.518426       -14.1071
  16   2.0000      -0.482243       -13.1225
  17   2.0000      -0.476037       -12.9536
  18   2.0000      -0.472850       -12.8669
  19   2.0000      -0.458147       -12.4668
  20   2.0000      -0.447989       -12.1904
  21   2.0000      -0.380861       -10.3637
  22   2.0000      -0.376651       -10.2492
  23   2.0000      -0.353156        -9.6099
  24   2.0000      -0.342725        -9.3260
  25   2.0000      -0.335531        -9.1303
  26   0.0000       0.043779         1.1913
  27   0.0000       0.063413         1.7255
  28   0.0000       0.075417         2.0522
  29   0.0000       0.078863         2.1460
  30   0.0000       0.090653         2.4668

MULLIKEN ATOMIC CHARGES
-----------------------
   0 C :   -0.033513
   1 C :   -0.010900
   2 C :   -0.125385
   3 S :    0.007613
   4 S :   -0.063359
   5 S :   -0.027765
   6 C :   -0.112947
   7 C :   -0.027809
   8 C :   -0.021374
   9 H :    0.021464
  10 H :    0.030766
  11 H :    0.029543
  12 H :    0.068985
  13 H :    0.056075
  14 H :    0.053953
  15 H :    0.070873
  16 H :    0.023525
  17 H :    0.026877
  18 H :    0.033378
Sum of atomic charges:    0.0000000

LOEWDIN ATOMIC CHARGES
----------------------
   0 C :   -0.067922
   1 C :   -0.073161
   2 C :   -0.252389
   3 S :    0.198954
   4 S :    0.008496
   5 S :    0.182190
   6 C :   -0.250346
   7 C :   -0.077126
   8 C :   -0.059111
   9 H :    0.035155
  10 H :    0.039920
  11 H :    0.041897
  12 H :    0.034357
  13 H :    0.042253
  14 H :    0.036361
  15 H :    0.043098
  16 H :    0.042257
  17 H :    0.035447
  18 H :    0.039668

  Mayer bond orders larger than 0.100000
B(  0-C ,  1-C ) :   1.9287 B(  0-C ,  9-H ) :   0.9998 B(  0-C , 10-H ) :   0.9969
B(  1-C ,  2-C ) :   1.0249 B(  1-C , 11-H ) :   1.0025 B(  2-C ,  3-S ) :   0.9472
B(  2-C , 12-H ) :   0.9885 B(  2-C , 13-H ) :   0.9974 B(  3-S ,  4-S ) :   1.0075
B(  4-S ,  5-S ) :   1.0073 B(  5-S ,  6-C ) :   0.9466 B(  6-C ,  7-C ) :   1.0343
B(  6-C , 14-H ) :   0.9952 B(  6-C , 15-H ) :   0.9889 B(  7-C ,  8-C ) :   1.9248
B(  7-C , 16-H ) :   0.9999 B(  8-C , 17-H ) :   0.9973 B(  8-C , 18-H ) :   0.9973

Dispersion correction           -0.025318947
FINAL SINGLE POINT ENERGY       -70.831225902814

DIPOLE MOMENT
-------------

Method             : SCF
Type of density    : Electron Density
Multiplicity       :   1
Irrep              :   0
Energy             :   -70.8059069553269751 Eh
Relativity type    :
Basis              : AO
                                X                 Y                 Z
Electronic contribution:      2.516576523       2.541426581      16.917906140
Nuclear contribution   :     -2.352820031      -2.256467742     -17.173968986
                        -----------------------------------------
Total Dipole Moment    :      0.163756492       0.284958839      -0.256062846
                        -----------------------------------------
Magnitude (a.u.)       :      0.416636423
Magnitude (Debye)      :      1.059005628

VIBRATIONAL FREQUENCIES
-----------------------

Scaling factor for frequencies =  1.000000000  (already applied!)

     0:       0.00 cm**-1
     1:       0.00 cm**-1
     2:       0.00 cm**-1
     3:       0.00 cm**-1
     4:       0.00 cm**-1
     5:       0.00 cm**-1
     6:      34.57 cm**-1
     7:      46.77 cm**-1
     8:      67.90 cm**-1
     9:      71.61 cm**-1
    10:      91.04 cm**-1
    11:     117.33 cm**-1
    12:     163.56 cm**-1
    13:     236.43 cm**-1
    14:     251.77 cm**-1
    15:     322.65 cm**-1
    16:     331.67 cm**-1
    17:     420.51 cm**-1
    18:     420.61 cm**-1
    19:     525.87 cm**-1
    20:     526.68 cm**-1
    21:     615.17 cm**-1
    22:     626.67 cm**-1
    23:     770.78 cm**-1
    24:     775.87 cm**-1
    25:     897.14 cm**-1
    26:     900.37 cm**-1
    27:     969.42 cm**-1
    28:     972.82 cm**-1
    29:     974.61 cm**-1
    30:     983.49 cm**-1
    31:    1039.87 cm**-1
    32:    1049.71 cm**-1
    33:    1124.85 cm**-1
    34:    1135.56 cm**-1
    35:    1257.93 cm**-1
    36:    1260.47 cm**-1
    37:    1290.72 cm**-1
    38:    1294.95 cm**-1
    39:    1349.64 cm**-1
    40:    1350.09 cm**-1
    41:    1465.74 cm**-1
    42:    1469.02 cm**-1
    43:    1498.25 cm**-1
    44:    1499.45 cm**-1
    45:    1768.01 cm**-1
    46:    1768.64 cm**-1
    47:    3122.84 cm**-1
    48:    3124.57 cm**-1
    49:    3191.21 cm**-1
    50:    3199.50 cm**-1
    51:    3208.74 cm**-1
    52:    3211.31 cm**-1
    53:    3236.51 cm**-1
    54:    3236.85 cm**-1
    55:    3309.00 cm**-1
    56:    3312.29 cm**-1

IR SPECTRUM
-----------

 Mode   freq       eps      Int      T**2         TX        TY        TZ
       cm**-1   L/(mol*cm) km/mol    a.u.
----------------------------------------------------------------------------
  6:     34.57   0.000103    0.52  0.000929  ( 0.011951  0.027550 -0.005193)
  7:     46.77   0.000065    0.33  0.000431  (-0.004648 -0.003200  0.019986)
  8:     67.90   0.000061    0.31  0.000280  (-0.002116 -0.007371 -0.014875)
  9:     71.61   0.000025    0.13  0.000111  ( 0.001064 -0.010387  0.001419)
 10:     91.04   0.000040    0.20  0.000139  (-0.005037  0.000627  0.010627)
 11:    117.33   0.000039    0.20  0.000105  ( 0.000784 -0.003678 -0.009535)
 12:    163.56   0.000236    1.19  0.000450  (-0.010378  0.007058 -0.017110)
 13:    236.43   0.000099    0.50  0.000130  ( 0.006339 -0.001919 -0.009282)
 14:    251.77   0.000434    2.19  0.000538  ( 0.021277  0.003772 -0.008443)
 15:    322.65   0.000152    0.77  0.000147  ( 0.003610  0.003980  0.010882)
 16:    331.67   0.000615    3.11  0.000579  (-0.021729 -0.007856  0.006720)
 17:    420.51   0.000336    1.70  0.000250  (-0.010941 -0.008384 -0.007722)
 18:    420.61   0.000192    0.97  0.000143  ( 0.011633 -0.000869  0.002560)
 19:    525.87   0.001353    6.84  0.000803  (-0.014444 -0.018904 -0.015388)
 20:    526.68   0.001607    8.12  0.000952  ( 0.012240  0.016191  0.023245)
 21:    615.17   0.001638    8.28  0.000831  (-0.022172 -0.018380 -0.001152)
 22:    626.67   0.001738    8.78  0.000865  ( 0.009319 -0.027044 -0.006868)
 23:    770.78   0.002141   10.82  0.000867  (-0.021656  0.016623  0.011030)
 24:    775.87   0.002033   10.27  0.000818  ( 0.027436  0.007696 -0.002395)
 25:    897.14   0.000408    2.06  0.000142  (-0.000612 -0.009560 -0.007092)
 26:    900.37   0.001845    9.33  0.000640  ( 0.021202 -0.009420  0.010068)
 27:    969.42   0.009746   49.25  0.003137  ( 0.032814 -0.044893 -0.006723)
 28:    972.82   0.010578   53.46  0.003393  ( 0.053934  0.020481  0.008052)
 29:    974.61   0.000421    2.13  0.000135  ( 0.010451  0.000833 -0.004981)
 30:    983.49   0.000268    1.35  0.000085  (-0.003308 -0.006197  0.005972)
 31:   1039.87   0.002537   12.82  0.000761  ( 0.024647  0.011940  0.003345)
 32:   1049.71   0.002438   12.32  0.000725  ( 0.014742 -0.022242 -0.003559)
 33:   1124.85   0.001040    5.25  0.000288  ( 0.016255  0.004539  0.001902)
 34:   1135.56   0.000832    4.21  0.000229  (-0.014124  0.005220  0.001426)
 35:   1257.93   0.000616    3.11  0.000153  (-0.009379  0.000307 -0.008040)
 36:   1260.47   0.000061    0.31  0.000015  (-0.003527  0.001395 -0.000816)
 37:   1290.72   0.003049   15.41  0.000737  ( 0.026695  0.003079  0.003877)
 38:   1294.95   0.004969   25.11  0.001197  ( 0.028495  0.003820  0.019259)
 39:   1349.64   0.000380    1.92  0.000088  ( 0.007628  0.003457 -0.004198)
 40:   1350.09   0.000137    0.69  0.000032  (-0.002344 -0.004732  0.001960)
 41:   1465.74   0.001203    6.08  0.000256  (-0.001288 -0.012610 -0.009769)
 42:   1469.02   0.000894    4.52  0.000190  ( 0.005041  0.012734  0.001519)
 43:   1498.25   0.002456   12.41  0.000511  ( 0.011589 -0.008896  0.017263)
 44:   1499.45   0.003051   15.42  0.000635  ( 0.016037 -0.010584  0.016299)
 45:   1768.01   0.001369    6.92  0.000242  (-0.008708  0.011591  0.005615)
 46:   1768.64   0.002566   12.97  0.000453  ( 0.018265  0.007451  0.007975)
 47:   3122.84   0.001416    7.16  0.000142  ( 0.006503  0.004274  0.008997)
 48:   3124.57   0.001255    6.34  0.000125  ( 0.001270 -0.009219  0.006227)
 49:   3191.21   0.000063    0.32  0.000006  (-0.002222  0.000618  0.000904)
 50:   3199.50   0.000440    2.22  0.000043  (-0.005559 -0.000945 -0.003329)
 51:   3208.74   0.001171    5.92  0.000114  ( 0.006735  0.001978  0.008039)
 52:   3211.31   0.000782    3.95  0.000076  ( 0.005029 -0.006774  0.002194)
 53:   3236.51   0.000524    2.65  0.000050  (-0.001513 -0.004650  0.005155)
 54:   3236.85   0.000395    2.00  0.000038  (-0.004405 -0.001005  0.004202)
 55:   3309.00   0.000576    2.91  0.000054  (-0.003512 -0.002906  0.005793)
 56:   3312.29   0.000372    1.88  0.000035  ( 0.000862  0.001623 -0.005630)

--------------------------
THERMOCHEMISTRY AT 298.15K
--------------------------

Temperature         ...   298.15 K
Pressure            ...     1.00 atm
Total Mass          ...   178.33 AMU
Quasi RRHO          ...     True
Cut-Off Frequency   ...     1.00 cm^-1

Throughout the following assumptions are being made:
  (1) The electronic state is orbitally nondegenerate
  (2) There are no thermally accessible electronically excited states
  (3) Hindered rotations indicated by low frequency modes are not
      treated as such but are treated as vibrations and this may
      cause some error
  (4) All equations used are the standard statistical mechanics
      equations for an ideal gas
  (5) All vibrations are strictly harmonic

freq.      34.57  E(vib)   ...       0.54
freq.      46.77  E(vib)   ...       0.53
freq.      67.90  E(vib)   ...       0.50
freq.      71.61  E(vib)   ...       0.50
freq.      91.04  E(vib)   ...       0.47
freq.     117.33  E(vib)   ...       0.44
freq.     163.56  E(vib)   ...       0.39
freq.     236.43  E(vib)   ...       0.32
freq.     251.77  E(vib)   ...       0.30
freq.     322.65  E(vib)   ...       0.25
freq.     331.67  E(vib)   ...       0.24
freq.     420.51  E(vib)   ...       0.18
freq.     420.61  E(vib)   ...       0.18
freq.     525.87  E(vib)   ...       0.13
freq.     526.68  E(vib)   ...       0.13
freq.     615.17  E(vib)   ...       0.10
freq.     626.67  E(vib)   ...       0.09
freq.     770.78  E(vib)   ...       0.05
freq.     775.87  E(vib)   ...       0.05
freq.     897.14  E(vib)   ...       0.03
freq.     900.37  E(vib)   ...       0.03
freq.     969.42  E(vib)   ...       0.03
freq.     972.82  E(vib)   ...       0.03
freq.     974.61  E(vib)   ...       0.03
freq.     983.49  E(vib)   ...       0.02
freq.    1039.87  E(vib)   ...       0.02
freq.    1049.71  E(vib)   ...       0.02
freq.    1124.85  E(vib)   ...       0.01
freq.    1135.56  E(vib)   ...       0.01
freq.    1257.93  E(vib)   ...       0.01
freq.    1260.47  E(vib)   ...       0.01
freq.    1290.72  E(vib)   ...       0.01
freq.    1294.95  E(vib)   ...       0.01
freq.    1349.64  E(vib)   ...       0.01
freq.    1350.09  E(vib)   ...       0.01
freq.    1465.74  E(vib)   ...       0.00
freq.    1469.02  E(vib)   ...       0.00
freq.    1498.25  E(vib)   ...       0.00
freq.    1499.45  E(vib)   ...       0.00
freq.    1768.01  E(vib)   ...       0.00
freq.    1768.64  E(vib)   ...       0.00
freq.    3122.84  E(vib)   ...       0.00
freq.    3124.57  E(vib)   ...       0.00
freq.    3191.21  E(vib)   ...       0.00
freq.    3199.50  E(vib)   ...       0.00
freq.    3208.74  E(vib)   ...       0.00
freq.    3211.31  E(vib)   ...       0.00
freq.    3236.51  E(vib)   ...       0.00
freq.    3236.85  E(vib)   ...       0.00
freq.    3309.00  E(vib)   ...       0.00
freq.    3312.29  E(vib)   ...       0.00

------------
INNER ENERGY
------------

The inner energy is: U= E(el) + E(ZPE) + E(vib) + E(rot) + E(trans)
    E(el)   - is the total energy from the electronic structure calculation
              = E(kin-el) + E(nuc-el) + E(el-el) + E(nuc-nuc)
    E(ZPE)  - the the zero temperature vibrational energy from the frequency calculation
    E(vib)  - the the finite temperature correction to E(ZPE) due to population
              of excited vibrational states
    E(rot)  - is the rotational thermal energy
    E(trans)- is the translational thermal energy

Summary of contributions to the inner energy U:
Electronic energy                ...    -70.83122590 Eh
Zero point energy                ...      0.15011075 Eh      94.20 kcal/mol
Thermal vibrational correction   ...      0.00906658 Eh       5.69 kcal/mol
Thermal rotational correction    ...      0.00141627 Eh       0.89 kcal/mol
Thermal translational correction ...      0.00141627 Eh       0.89 kcal/mol
-----------------------------------------------------------------------
Total thermal energy                    -70.66921603 Eh

Summary of corrections to the electronic energy:
(perhaps to be used in another calculation)
Total thermal correction                  0.01189912 Eh       7.47 kcal/mol
Non-thermal (ZPE) correction              0.15011075 Eh      94.20 kcal/mol
-----------------------------------------------------------------------
Total correction                          0.16200987 Eh     101.66 kcal/mol

--------
ENTHALPY
--------

The enthalpy is H = U + kB*T
                kB is Boltzmann's constant
Total thermal energy              ...    -70.66921603 Eh
Thermal Enthalpy correction       ...      0.00094421 Eh       0.59 kcal/mol
-----------------------------------------------------------------------
Total Enthalpy                    ...    -70.66827182 Eh

Note: Only C1 symmetry has been detected, increase convergence thresholds
      if your molecule has a higher symmetry. Symmetry factor of 1.0 is
      used for the rotational entropy correction.

Note: Rotational entropy computed according to Herzberg
Infrared and Raman Spectra, Chapter V,1, Van Nostrand Reinhold, 1945
Point Group:  C1, Symmetry Number:   1
Rotational constants in cm-1:     0.068509     0.017107     0.015181

Vibrational entropy computed according to the QRRHO of S. Grimme
Chem.Eur.J. 2012 18 9955 using a reference frequency of 100.0 cm-1

-------
ENTROPY
-------

The entropy contributions are T*S = T*(S(el)+S(vib)+S(rot)+S(trans))
     S(el)   - electronic entropy
     S(vib)  - vibrational entropy
     S(rot)  - rotational entropy
     S(trans)- translational entropy
The entropies will be listed as multiplied by the temperature to get
units of energy

Electronic entropy                ...      0.00000000 Eh      0.00 kcal/mol
Vibrational entropy               ...      0.01647247 Eh     10.34 kcal/mol
Rotational entropy                ...      0.01467395 Eh      9.21 kcal/mol
Translational entropy             ...      0.01969047 Eh     12.36 kcal/mol
-----------------------------------------------------------------------
Final entropy term                ...      0.05083690 Eh     31.90 kcal/mol

In case the symmetry of your molecule has not been determined correctly
or in case you have a reason to use a different symmetry number we print
out the resulting rotational entropy values for sn=1,12:

 non-linear molecules -----------------------------------
|  sn= 1 | S(rot)=       0.01467395 Eh      9.21 kcal/mol|
|  sn= 2 | S(rot)=       0.01401949 Eh      8.80 kcal/mol|
|  sn= 3 | S(rot)=       0.01363666 Eh      8.56 kcal/mol|
|  sn= 4 | S(rot)=       0.01336504 Eh      8.39 kcal/mol|
|  sn= 5 | S(rot)=       0.01315435 Eh      8.25 kcal/mol|
|  sn= 6 | S(rot)=       0.01298221 Eh      8.15 kcal/mol|
|  sn= 7 | S(rot)=       0.01283666 Eh      8.06 kcal/mol|
|  sn= 8 | S(rot)=       0.01271058 Eh      7.98 kcal/mol|
|  sn= 9 | S(rot)=       0.01259937 Eh      7.91 kcal/mol|

                             ****ORCA TERMINATED NORMALLY****
TOTAL RUN TIME: 0 days 0 hours 11 minutes 42 seconds 153 msec
