                         Program Version 6.0.1  -  RELEASE   -
|  1> ! wB97X-3c OPT FREQ TightSCF
|  2> %pal
|  3>   nprocs 40
|  4> end
|  5> * xyz 0 1
|  6> C     -2.045884    -1.847903     1.095046
|  7> C     -1.304403    -0.739842     0.410209
|  8> C     -1.676298     0.565432     0.563319
|  9> C     -0.867931     1.661228    -0.160670
| 10> C      0.307671     1.004336    -0.973796
| 11> C     -0.339422    -0.157688    -1.756413
| 12> C     -0.097824    -1.015303    -0.499631
| 13> C      1.058789    -0.055997    -0.117619
| 14> C      2.406844    -0.473104    -0.759160
| 15> C      1.308107     0.227709     1.390335
| 16> O     -0.377661     2.586826     0.771057
| 17> H     -2.002350    -1.702787     2.194904
| 18> H     -1.595466    -2.831827     0.847998
| 19> H     -3.106369    -1.848337     0.766484
| 20> H     -2.525985     0.835044     1.183394
| 21> H     -1.553867     2.181488    -0.867657
| 22> H      0.932363     1.697023    -1.578478
| 23> H     -1.404875    -0.017668    -2.054531
| 24> H      0.267698    -0.485807    -2.627601
| 25> H      0.167397    -2.079554    -0.680022
| 26> H      2.330330    -0.681098    -1.845218
| 27> H      3.154652     0.337644    -0.626440
| 28> H      2.791614    -1.392542    -0.268548
| 29> H      0.407171     0.453235     1.988103
| 30> H      1.781845    -0.659466     1.861696
| 31> H      2.001717     1.088757     1.494859
| 32> H     -0.017866     3.350202     0.248382
| 33> *
| 34>
| 35>                          ****END OF INPUT****
 Total Charge           Charge          ....    0
 Multiplicity           Mult            ....    1
 Number of Electrons    NEL             ....   62
Dispersion correction           -0.034781811
FINAL SINGLE POINT ENERGY       -82.629215111975
Dispersion correction             ... done (  0.1 sec)
Dispersion correction           -0.035109305
FINAL SINGLE POINT ENERGY       -82.642514172867
Dispersion correction             ... done (  0.1 sec)
Dispersion correction           -0.035257199
FINAL SINGLE POINT ENERGY       -82.643944062873
Dispersion correction             ... done (  0.1 sec)
FINAL SINGLE POINT ENERGY       -82.644206985126
FINAL SINGLE POINT ENERGY       -82.644280755932
FINAL SINGLE POINT ENERGY       -82.644294759334
FINAL SINGLE POINT ENERGY       -82.644308962776
FINAL SINGLE POINT ENERGY       -82.644502295046
FINAL SINGLE POINT ENERGY       -82.644579291443
FINAL SINGLE POINT ENERGY       -82.644904184066
FINAL SINGLE POINT ENERGY       -82.646201848620
FINAL SINGLE POINT ENERGY       -82.647249088016
FINAL SINGLE POINT ENERGY       -82.647886478473
FINAL SINGLE POINT ENERGY       -82.648096190156
FINAL SINGLE POINT ENERGY       -82.647863018410
FINAL SINGLE POINT ENERGY       -82.648130954758
Dispersion correction             ... done (  0.1 sec)
Dispersion correction           -0.035250773
FINAL SINGLE POINT ENERGY       -82.648134754030
Dispersion correction             ... done (  0.1 sec)
Dispersion correction           -0.035250815
FINAL SINGLE POINT ENERGY       -82.648136622093
Dispersion correction             ... done (  0.1 sec)
                    ***********************HURRAY********************

CARTESIAN COORDINATES (ANGSTROEM)
---------------------------------
  C     -2.017334   -1.836379    1.066491
  C     -1.316819   -0.709158    0.391316
  C     -1.681031    0.563362    0.487102
  C     -0.890598    1.621147   -0.228042
  C      0.293864    0.987639   -0.949816
  C     -0.254612   -0.201149   -1.759101
  C     -0.104356   -1.008955   -0.454611
  C      1.052583   -0.041591   -0.067050
  C      2.370277   -0.454760   -0.707388
  C      1.313287    0.246591    1.397874
  O     -0.509749    2.611261    0.713671
  H     -1.338360   -2.353414    1.746544
  H     -2.358273   -2.572912    0.337190
  H     -2.877637   -1.490403    1.635555
  H     -2.531420    0.881496    1.076940
  H     -1.534260    2.089096   -0.984531
  H      0.888325    1.743125   -1.469673
  H     -1.265686   -0.107884   -2.152697
  H      0.410158   -0.521484   -2.555031
  H      0.116889   -2.074902   -0.513392
  H      2.285263   -0.696296   -1.763925
  H      3.101919    0.348437   -0.610061
  H      2.776050   -1.330851   -0.199848
  H      0.424964    0.549157    1.939707
  H      1.727960   -0.642260    1.877220
  H      2.045744    1.047457    1.499707
  H     -0.127155    3.353629    0.245852

 Multiplicity           Mult            ....    1
 Number of Electrons    NEL             ....   62
 Basis Dimension        Dim             ....  223

ORBITAL ENERGIES
----------------

  NO   OCC          E(Eh)            E(eV)
   0   2.0000      -1.145975       -31.1836
   1   2.0000      -1.032057       -28.0837
   2   2.0000      -0.931035       -25.3347
   3   2.0000      -0.887728       -24.1563
   4   2.0000      -0.862840       -23.4791
   5   2.0000      -0.814720       -22.1697
   6   2.0000      -0.806417       -21.9437
   7   2.0000      -0.744640       -20.2627
   8   2.0000      -0.729297       -19.8452
   9   2.0000      -0.687822       -18.7166
  10   2.0000      -0.626165       -17.0388
  11   2.0000      -0.619854       -16.8671
  12   2.0000      -0.594833       -16.1862
  13   2.0000      -0.566356       -15.4113
  14   2.0000      -0.557532       -15.1712
  15   2.0000      -0.543747       -14.7961
  16   2.0000      -0.534511       -14.5448
  17   2.0000      -0.522332       -14.2134
  18   2.0000      -0.514827       -14.0092
  19   2.0000      -0.502813       -13.6822
  20   2.0000      -0.495577       -13.4853
  21   2.0000      -0.483354       -13.1527
  22   2.0000      -0.477834       -13.0025
  23   2.0000      -0.459026       -12.4907
  24   2.0000      -0.441620       -12.0171
  25   2.0000      -0.431125       -11.7315
  26   2.0000      -0.421769       -11.4769
  27   2.0000      -0.402221       -10.9450
  28   2.0000      -0.383688       -10.4407
  29   2.0000      -0.376055       -10.2330
  30   2.0000      -0.327632        -8.9153
  31   0.0000       0.073637         2.0038
  32   0.0000       0.090835         2.4717
  33   0.0000       0.101463         2.7610
  34   0.0000       0.103152         2.8069
  35   0.0000       0.106832         2.9070

MULLIKEN ATOMIC CHARGES
-----------------------
   0 C :   -0.038512
   1 C :   -0.076987
   2 C :    0.030034
   3 C :    0.018045
   4 C :   -0.014950
   5 C :   -0.007569
   6 C :   -0.025946
   7 C :   -0.162442
   8 C :   -0.017157
   9 C :    0.011407
  10 O :   -0.292966
  11 H :    0.038051
  12 H :    0.039661
  13 H :    0.029092
  14 H :    0.022190
  15 H :    0.032917
  16 H :    0.025160
  17 H :    0.036422
  18 H :    0.025396
  19 H :    0.024734
  20 H :    0.013140
  21 H :    0.028438
  22 H :    0.027857
  23 H :    0.048265
  24 H :    0.018686
  25 H :    0.024035
  26 H :    0.142999
Sum of atomic charges:   -0.0000000

LOEWDIN ATOMIC CHARGES
----------------------
   0 C :   -0.107019
   1 C :   -0.028884
   2 C :   -0.039966
   3 C :   -0.045513
   4 C :   -0.034933
   5 C :   -0.046958
   6 C :   -0.031607
   7 C :   -0.051194
   8 C :   -0.102213
   9 C :   -0.103581
  10 O :   -0.061971
  11 H :    0.050925
  12 H :    0.050805
  13 H :    0.051950
  14 H :    0.036907
  15 H :    0.043977
  16 H :    0.030263
  17 H :    0.036753
  18 H :    0.033999
  19 H :    0.034584
  20 H :    0.039712
  21 H :    0.045316
  22 H :    0.045317
  23 H :    0.042704
  24 H :    0.041263
  25 H :    0.045162
  26 H :    0.024199

  Mayer bond orders larger than 0.100000
B(  0-C ,  1-C ) :   1.0403 B(  0-C , 11-H ) :   0.9762 B(  0-C , 12-H ) :   0.9758
B(  0-C , 13-H ) :   0.9887 B(  1-C ,  2-C ) :   1.8980 B(  1-C ,  6-C ) :   1.0230
B(  2-C ,  3-C ) :   1.0306 B(  2-C , 14-H ) :   0.9806 B(  3-C ,  4-C ) :   0.9981
B(  3-C , 10-O ) :   0.9830 B(  3-C , 15-H ) :   0.9982 B(  4-C ,  5-C ) :   0.9826
B(  4-C ,  7-C ) :   0.9521 B(  4-C , 16-H ) :   0.9980 B(  5-C ,  6-C ) :   0.9734
B(  5-C , 17-H ) :   1.0013 B(  5-C , 18-H ) :   1.0009 B(  6-C ,  7-C ) :   0.9501
B(  6-C , 19-H ) :   0.9980 B(  7-C ,  8-C ) :   1.0258 B(  7-C ,  9-C ) :   1.0244
B(  8-C , 20-H ) :   0.9908 B(  8-C , 21-H ) :   0.9901 B(  8-C , 22-H ) :   0.9910
B(  9-C , 23-H ) :   0.9813 B(  9-C , 24-H ) :   0.9838 B(  9-C , 25-H ) :   0.9847
B( 10-O , 26-H ) :   1.0644

Dispersion correction           -0.035250150
FINAL SINGLE POINT ENERGY       -82.648137018489

DIPOLE MOMENT
-------------

Method             : SCF
Type of density    : Electron Density
Multiplicity       :   1
Irrep              :   0
Energy             :   -82.6128868682603752 Eh
Relativity type    :
Basis              : AO
                                X                 Y                 Z
Electronic contribution:     -4.384466989       2.994432568      -1.423618419
Nuclear contribution   :      4.520478512      -3.121699675       0.813512868
                        -----------------------------------------
Total Dipole Moment    :      0.136011523      -0.127267107      -0.610105550
                        -----------------------------------------
Magnitude (a.u.)       :      0.637906602
Magnitude (Debye)      :      1.621429726

VIBRATIONAL FREQUENCIES
-----------------------

Scaling factor for frequencies =  1.000000000  (already applied!)

     0:       0.00 cm**-1
     1:       0.00 cm**-1
     2:       0.00 cm**-1
     3:       0.00 cm**-1
     4:       0.00 cm**-1
     5:       0.00 cm**-1
     6:     125.52 cm**-1
     7:     165.31 cm**-1
     8:     188.54 cm**-1
     9:     196.16 cm**-1
    10:     202.73 cm**-1
    11:     220.37 cm**-1
    12:     240.81 cm**-1
    13:     251.00 cm**-1
    14:     307.00 cm**-1
    15:     377.56 cm**-1
    16:     401.94 cm**-1
    17:     411.46 cm**-1
    18:     442.12 cm**-1
    19:     481.09 cm**-1
    20:     489.43 cm**-1
    21:     539.72 cm**-1
    22:     597.37 cm**-1
    23:     675.91 cm**-1
    24:     727.69 cm**-1
    25:     815.57 cm**-1
    26:     859.53 cm**-1
    27:     864.58 cm**-1
    28:     923.57 cm**-1
    29:     945.77 cm**-1
    30:     963.98 cm**-1
    31:     981.96 cm**-1
    32:     985.39 cm**-1
    33:    1012.11 cm**-1
    34:    1040.81 cm**-1
    35:    1056.86 cm**-1
    36:    1077.27 cm**-1
    37:    1086.69 cm**-1
    38:    1115.15 cm**-1
    39:    1135.47 cm**-1
    40:    1143.49 cm**-1
    41:    1184.39 cm**-1
    42:    1189.93 cm**-1
    43:    1240.73 cm**-1
    44:    1245.02 cm**-1
    45:    1248.03 cm**-1
    46:    1282.66 cm**-1
    47:    1294.78 cm**-1
    48:    1313.29 cm**-1
    49:    1331.67 cm**-1
    50:    1383.34 cm**-1
    51:    1409.05 cm**-1
    52:    1410.65 cm**-1
    53:    1439.30 cm**-1
    54:    1447.59 cm**-1
    55:    1454.14 cm**-1
    56:    1463.83 cm**-1
    57:    1508.10 cm**-1
    58:    1510.24 cm**-1
    59:    1514.60 cm**-1
    60:    1518.19 cm**-1
    61:    1530.80 cm**-1
    62:    1542.53 cm**-1
    63:    1548.14 cm**-1
    64:    1793.18 cm**-1
    65:    3037.26 cm**-1
    66:    3094.37 cm**-1
    67:    3096.00 cm**-1
    68:    3100.63 cm**-1
    69:    3108.78 cm**-1
    70:    3135.27 cm**-1
    71:    3144.57 cm**-1
    72:    3172.18 cm**-1
    73:    3174.76 cm**-1
    74:    3179.43 cm**-1
    75:    3202.67 cm**-1
    76:    3206.66 cm**-1
    77:    3218.77 cm**-1
    78:    3244.62 cm**-1
    79:    3246.02 cm**-1
    80:    3961.54 cm**-1

IR SPECTRUM
-----------

 Mode   freq       eps      Int      T**2         TX        TY        TZ
       cm**-1   L/(mol*cm) km/mol    a.u.
----------------------------------------------------------------------------
  6:    125.52   0.000545    2.76  0.001356  (-0.029830 -0.004721 -0.021066)
  7:    165.31   0.000248    1.25  0.000468  (-0.004288 -0.016805 -0.012926)
  8:    188.54   0.000043    0.22  0.000070  (-0.006818  0.001331 -0.004712)
  9:    196.16   0.000133    0.67  0.000212  (-0.008509 -0.010413 -0.005573)
 10:    202.73   0.000138    0.70  0.000212  (-0.007270  0.011579  0.004988)
 11:    220.37   0.000878    4.44  0.001244  ( 0.034778 -0.000917  0.005806)
 12:    240.81   0.010154   51.31  0.013158  ( 0.095454 -0.063153  0.007614)
 13:    251.00   0.013298   67.20  0.016533  ( 0.100897 -0.079517  0.005474)
 14:    307.00   0.000505    2.55  0.000513  (-0.022325  0.003270 -0.002035)
 15:    377.56   0.000106    0.54  0.000088  (-0.007319 -0.001041  0.005753)
 16:    401.94   0.000133    0.67  0.000104  ( 0.010048 -0.001405 -0.000770)
 17:    411.46   0.000119    0.60  0.000090  ( 0.009007  0.000083  0.002987)
 18:    442.12   0.000244    1.23  0.000172  ( 0.013070 -0.000806  0.000772)
 19:    481.09   0.000129    0.65  0.000084  (-0.008816  0.002466  0.000256)
 20:    489.43   0.001524    7.70  0.000972  ( 0.000258 -0.029319 -0.010598)
 21:    539.72   0.000527    2.67  0.000305  (-0.015279  0.008318 -0.001524)
 22:    597.37   0.000676    3.42  0.000353  (-0.007727 -0.008374 -0.014948)
 23:    675.91   0.000100    0.50  0.000046  ( 0.006353 -0.002304  0.000643)
 24:    727.69   0.001996   10.08  0.000856  ( 0.010807  0.022968  0.014542)
 25:    815.57   0.001179    5.96  0.000451  (-0.004060  0.014192  0.015270)
 26:    859.53   0.002152   10.88  0.000781  ( 0.021089 -0.013614  0.012303)
 27:    864.58   0.000089    0.45  0.000032  (-0.002610  0.004363 -0.002523)
 28:    923.57   0.000697    3.52  0.000235  ( 0.011551  0.001190  0.010031)
 29:    945.77   0.000386    1.95  0.000127  ( 0.006451 -0.002975 -0.008763)
 30:    963.98   0.000484    2.45  0.000157  (-0.007810  0.009684  0.001418)
 31:    981.96   0.000722    3.65  0.000229  (-0.007203  0.012292  0.005150)
 32:    985.39   0.000816    4.12  0.000258  ( 0.004005  0.015424 -0.002126)
 33:   1012.11   0.001562    7.89  0.000482  (-0.016886 -0.013216 -0.004666)
 34:   1040.81   0.000077    0.39  0.000023  (-0.000027  0.004354  0.002045)
 35:   1056.86   0.000413    2.09  0.000122  (-0.009764  0.004249 -0.002911)
 36:   1077.27   0.003811   19.26  0.001104  (-0.011790 -0.027035 -0.015300)
 37:   1086.69   0.000200    1.01  0.000058  (-0.003306  0.006440 -0.002262)
 38:   1115.15   0.005260   26.58  0.001472  (-0.006592 -0.031134 -0.021431)
 39:   1135.47   0.007064   35.70  0.001941  ( 0.008526  0.035373  0.024848)
 40:   1143.49   0.001568    7.93  0.000428  ( 0.012591  0.014034  0.008517)
 41:   1184.39   0.000367    1.86  0.000097  (-0.007373  0.005314 -0.003758)
 42:   1189.93   0.005496   27.78  0.001441  ( 0.000073 -0.025568 -0.028066)
 43:   1240.73   0.007470   37.75  0.001879  ( 0.008299  0.035070  0.024085)
 44:   1245.02   0.003797   19.19  0.000952  ( 0.000801  0.022669  0.020907)
 45:   1248.03   0.006037   30.51  0.001510  ( 0.008264  0.029990  0.023280)
 46:   1282.66   0.000072    0.36  0.000017  (-0.002416  0.003020  0.001586)
 47:   1294.78   0.000136    0.69  0.000033  (-0.003316  0.001536 -0.004409)
 48:   1313.29   0.000226    1.14  0.000054  ( 0.000811 -0.004512 -0.005716)
 49:   1331.67   0.001929    9.75  0.000452  ( 0.015074 -0.001945  0.014869)
 50:   1383.34   0.001770    8.94  0.000399  (-0.006537  0.015429  0.010884)
 51:   1409.05   0.001590    8.03  0.000352  (-0.008472 -0.015448 -0.006451)
 52:   1410.65   0.001522    7.69  0.000337  (-0.011283  0.011506  0.008772)
 53:   1439.30   0.003131   15.82  0.000679  ( 0.009772 -0.011039 -0.021482)
 54:   1447.59   0.001805    9.12  0.000389  (-0.017268 -0.001047  0.009476)
 55:   1454.14   0.002573   13.00  0.000552  (-0.015806  0.000614 -0.017377)
 56:   1463.83   0.002339   11.82  0.000499  (-0.009887 -0.013086  0.015153)
 57:   1508.10   0.002322   11.74  0.000481  (-0.011719 -0.004176 -0.018048)
 58:   1510.24   0.000663    3.35  0.000137  (-0.006404  0.006152  0.007627)
 59:   1514.60   0.000240    1.21  0.000049  (-0.004395  0.005063  0.002103)
 60:   1518.19   0.002650   13.39  0.000545  (-0.012565  0.019152  0.004485)
 61:   1530.80   0.000322    1.63  0.000066  (-0.002737  0.003734  0.006646)
 62:   1542.53   0.003151   15.93  0.000638  (-0.003597 -0.023720  0.007870)
 63:   1548.14   0.002138   10.81  0.000431  (-0.006818 -0.004284 -0.019135)
 64:   1793.18   0.002310   11.68  0.000402  ( 0.002487 -0.019892 -0.000448)
 65:   3037.26   0.010684   53.99  0.001098  (-0.020653  0.014358 -0.021564)
 66:   3094.37   0.005774   29.18  0.000582  ( 0.011085  0.019745 -0.008338)
 67:   3096.00   0.003840   19.40  0.000387  ( 0.007621 -0.002183 -0.018005)
 68:   3100.63   0.011477   58.00  0.001155  ( 0.028348 -0.011123  0.015091)
 69:   3108.78   0.010845   54.81  0.001089  ( 0.017766  0.026580 -0.008155)
 70:   3135.27   0.007827   39.56  0.000779  (-0.005768  0.021459 -0.016891)
 71:   3144.57   0.007118   35.97  0.000706  (-0.002833 -0.017046 -0.020195)
 72:   3172.18   0.001769    8.94  0.000174  (-0.008104 -0.003530 -0.009794)
 73:   3174.76   0.000105    0.53  0.000010  (-0.000778 -0.003095  0.000370)
 74:   3179.43   0.006736   34.04  0.000661  ( 0.005349  0.024543 -0.005491)
 75:   3202.67   0.003127   15.80  0.000305  (-0.014300  0.000358 -0.010002)
 76:   3206.66   0.002296   11.60  0.000223  ( 0.012284 -0.005208 -0.006736)
 77:   3218.77   0.005568   28.14  0.000540  (-0.010893  0.006524  0.019457)
 78:   3244.62   0.002404   12.15  0.000231  ( 0.013030 -0.002638 -0.007379)
 79:   3246.02   0.000702    3.55  0.000068  ( 0.007286 -0.001198 -0.003607)
 80:   3961.54   0.009165   46.32  0.000722  (-0.008398 -0.024813  0.005976)

--------------------------
THERMOCHEMISTRY AT 298.15K
--------------------------

Temperature         ...   298.15 K
Pressure            ...     1.00 atm
Total Mass          ...   152.24 AMU
Quasi RRHO          ...     True
Cut-Off Frequency   ...     1.00 cm^-1

Throughout the following assumptions are being made:
  (1) The electronic state is orbitally nondegenerate
  (2) There are no thermally accessible electronically excited states
  (3) Hindered rotations indicated by low frequency modes are not
      treated as such but are treated as vibrations and this may
      cause some error
  (4) All equations used are the standard statistical mechanics
      equations for an ideal gas
  (5) All vibrations are strictly harmonic

freq.     125.52  E(vib)   ...       0.43
freq.     165.31  E(vib)   ...       0.39
freq.     188.54  E(vib)   ...       0.36
freq.     196.16  E(vib)   ...       0.36
freq.     202.73  E(vib)   ...       0.35
freq.     220.37  E(vib)   ...       0.33
freq.     240.81  E(vib)   ...       0.31
freq.     251.00  E(vib)   ...       0.30
freq.     307.00  E(vib)   ...       0.26
freq.     377.56  E(vib)   ...       0.21
freq.     401.94  E(vib)   ...       0.19
freq.     411.46  E(vib)   ...       0.19
freq.     442.12  E(vib)   ...       0.17
freq.     481.09  E(vib)   ...       0.15
freq.     489.43  E(vib)   ...       0.15
freq.     539.72  E(vib)   ...       0.12
freq.     597.37  E(vib)   ...       0.10
freq.     675.91  E(vib)   ...       0.08
freq.     727.69  E(vib)   ...       0.06
freq.     815.57  E(vib)   ...       0.05
freq.     859.53  E(vib)   ...       0.04
freq.     864.58  E(vib)   ...       0.04
freq.     923.57  E(vib)   ...       0.03
freq.     945.77  E(vib)   ...       0.03
freq.     963.98  E(vib)   ...       0.03
freq.     981.96  E(vib)   ...       0.02
freq.     985.39  E(vib)   ...       0.02
freq.    1012.11  E(vib)   ...       0.02
freq.    1040.81  E(vib)   ...       0.02
freq.    1056.86  E(vib)   ...       0.02
freq.    1077.27  E(vib)   ...       0.02
freq.    1086.69  E(vib)   ...       0.02
freq.    1115.15  E(vib)   ...       0.01
freq.    1135.47  E(vib)   ...       0.01
freq.    1143.49  E(vib)   ...       0.01
freq.    1184.39  E(vib)   ...       0.01
freq.    1189.93  E(vib)   ...       0.01
freq.    1240.73  E(vib)   ...       0.01
freq.    1245.02  E(vib)   ...       0.01
freq.    1248.03  E(vib)   ...       0.01
freq.    1282.66  E(vib)   ...       0.01
freq.    1294.78  E(vib)   ...       0.01
freq.    1313.29  E(vib)   ...       0.01
freq.    1331.67  E(vib)   ...       0.01
freq.    1383.34  E(vib)   ...       0.00
freq.    1409.05  E(vib)   ...       0.00
freq.    1410.65  E(vib)   ...       0.00
freq.    1439.30  E(vib)   ...       0.00
freq.    1447.59  E(vib)   ...       0.00
freq.    1454.14  E(vib)   ...       0.00
freq.    1463.83  E(vib)   ...       0.00
freq.    1508.10  E(vib)   ...       0.00
freq.    1510.24  E(vib)   ...       0.00
freq.    1514.60  E(vib)   ...       0.00
freq.    1518.19  E(vib)   ...       0.00
freq.    1530.80  E(vib)   ...       0.00
freq.    1542.53  E(vib)   ...       0.00
freq.    1548.14  E(vib)   ...       0.00
freq.    1793.18  E(vib)   ...       0.00
freq.    3037.26  E(vib)   ...       0.00
freq.    3094.37  E(vib)   ...       0.00
freq.    3096.00  E(vib)   ...       0.00
freq.    3100.63  E(vib)   ...       0.00
freq.    3108.78  E(vib)   ...       0.00
freq.    3135.27  E(vib)   ...       0.00
freq.    3144.57  E(vib)   ...       0.00
freq.    3172.18  E(vib)   ...       0.00
freq.    3174.76  E(vib)   ...       0.00
freq.    3179.43  E(vib)   ...       0.00
freq.    3202.67  E(vib)   ...       0.00
freq.    3206.66  E(vib)   ...       0.00
freq.    3218.77  E(vib)   ...       0.00
freq.    3244.62  E(vib)   ...       0.00
freq.    3246.02  E(vib)   ...       0.00
freq.    3961.54  E(vib)   ...       0.00

------------
INNER ENERGY
------------

The inner energy is: U= E(el) + E(ZPE) + E(vib) + E(rot) + E(trans)
    E(el)   - is the total energy from the electronic structure calculation
              = E(kin-el) + E(nuc-el) + E(el-el) + E(nuc-nuc)
    E(ZPE)  - the the zero temperature vibrational energy from the frequency calculation
    E(vib)  - the the finite temperature correction to E(ZPE) due to population
              of excited vibrational states
    E(rot)  - is the rotational thermal energy
    E(trans)- is the translational thermal energy

Summary of contributions to the inner energy U:
Electronic energy                ...    -82.64813702 Eh
Zero point energy                ...      0.24644669 Eh     154.65 kcal/mol
Thermal vibrational correction   ...      0.00802355 Eh       5.03 kcal/mol
Thermal rotational correction    ...      0.00141627 Eh       0.89 kcal/mol
Thermal translational correction ...      0.00141627 Eh       0.89 kcal/mol
-----------------------------------------------------------------------
Total thermal energy                    -82.39083424 Eh

Summary of corrections to the electronic energy:
(perhaps to be used in another calculation)
Total thermal correction                  0.01085609 Eh       6.81 kcal/mol
Non-thermal (ZPE) correction              0.24644669 Eh     154.65 kcal/mol
-----------------------------------------------------------------------
Total correction                          0.25730278 Eh     161.46 kcal/mol

--------
ENTHALPY
--------

The enthalpy is H = U + kB*T
                kB is Boltzmann's constant
Total thermal energy              ...    -82.39083424 Eh
Thermal Enthalpy correction       ...      0.00094421 Eh       0.59 kcal/mol
-----------------------------------------------------------------------
Total Enthalpy                    ...    -82.38989003 Eh

Note: Only C1 symmetry has been detected, increase convergence thresholds
      if your molecule has a higher symmetry. Symmetry factor of 1.0 is
      used for the rotational entropy correction.

Note: Rotational entropy computed according to Herzberg
Infrared and Raman Spectra, Chapter V,1, Van Nostrand Reinhold, 1945
Point Group:  C1, Symmetry Number:   1
Rotational constants in cm-1:     0.044514     0.040179     0.030784

Vibrational entropy computed according to the QRRHO of S. Grimme
Chem.Eur.J. 2012 18 9955 using a reference frequency of 100.0 cm-1

-------
ENTROPY
-------

The entropy contributions are T*S = T*(S(el)+S(vib)+S(rot)+S(trans))
     S(el)   - electronic entropy
     S(vib)  - vibrational entropy
     S(rot)  - rotational entropy
     S(trans)- translational entropy

                             ****ORCA TERMINATED NORMALLY****
TOTAL RUN TIME: 0 days 0 hours 22 minutes 0 seconds 948 msec
