                         Program Version 6.0.1  -  RELEASE   -
|  1> ! wB97X-3c OPT FREQ TightSCF
|  2> %pal
|  3>   nprocs 40
|  4> end
|  5> * xyz 0 1
|  6> C      2.221933    -0.199446    -1.731668
|  7> C      1.936586     0.099936    -0.242748
|  8> C      2.093252     1.603471    -0.047518
|  9> C      1.069745     2.453129    -0.239656
| 10> C     -0.302798     1.962991    -0.476059
| 11> C     -0.562785     0.661877    -0.327460
| 12> C      0.473973    -0.325972     0.142940
| 13> C     -0.091137    -1.618040    -0.438169
| 14> C     -1.457685    -1.431091     0.222392
| 15> C     -1.910348    -0.026371    -0.321391
| 16> C     -2.922646     0.673473     0.614402
| 17> C     -2.505317    -0.113793    -1.741724
| 18> C     -0.978622    -1.261285     1.651562
| 19> C      0.165973    -0.567627     1.606352
| 20> C      2.987065    -0.641351     0.610602
| 21> H      3.212563     0.207188    -2.031426
| 22> H      1.449161     0.262401    -2.383534
| 23> H      2.237188    -1.294042    -1.921190
| 24> H      3.079591     2.014446     0.133785
| 25> H      1.244608     3.520064    -0.189879
| 26> H     -1.095395     2.661944    -0.708191
| 27> H      0.444771    -2.530636    -0.082791
| 28> H     -0.133731    -1.642002    -1.547449
| 29> H     -2.177913    -2.263442     0.073038
| 30> H     -3.261775     1.635678     0.174631
| 31> H     -3.811213     0.024270     0.765847
| 32> H     -2.477266     0.902488     1.605567
| 33> H     -3.408196    -0.760911    -1.736283
| 34> H     -1.785878    -0.524372    -2.477773
| 35> H     -2.799167     0.896542    -2.098853
| 36> H     -1.462430    -1.626935     2.550786
| 37> H      0.748539    -0.267357     2.470025
| 38> H      2.829765    -1.739704     0.554322
| 39> H      4.014770    -0.417841     0.250272
| 40> H      2.934820    -0.327682     1.674018
| 41> *
| 42>
| 43>                          ****END OF INPUT****
 Total Charge           Charge          ....    0
 Multiplicity           Mult            ....    1
 Number of Electrons    NEL             ....   80
Dispersion correction           -0.054083904
FINAL SINGLE POINT ENERGY       -97.459297092573
Dispersion correction             ... done (  0.1 sec)
Dispersion correction           -0.054746237
FINAL SINGLE POINT ENERGY       -97.468630584066
Dispersion correction             ... done (  0.1 sec)
Dispersion correction           -0.054863142
FINAL SINGLE POINT ENERGY       -97.469818466675
Dispersion correction             ... done (  0.1 sec)
FINAL SINGLE POINT ENERGY       -97.470111733402
Dispersion correction             ... done (  0.1 sec)
Dispersion correction           -0.054854562
FINAL SINGLE POINT ENERGY       -97.470153350272
Dispersion correction             ... done (  0.1 sec)
Dispersion correction           -0.054855301
FINAL SINGLE POINT ENERGY       -97.470164282272
Dispersion correction             ... done (  0.1 sec)
                    ***********************HURRAY********************

CARTESIAN COORDINATES (ANGSTROEM)
---------------------------------
  C      2.157544   -0.169672   -1.752004
  C      1.932340    0.090972   -0.260655
  C      2.098051    1.576965   -0.043377
  C      1.085594    2.432294   -0.156043
  C     -0.283882    1.974314   -0.384941
  C     -0.560359    0.682536   -0.266923
  C      0.513842   -0.319246    0.136366
  C     -0.084646   -1.617826   -0.425219
  C     -1.434743   -1.431324    0.268028
  C     -1.888938   -0.046237   -0.304576
  C     -2.950946    0.626365    0.552490
  C     -2.425084   -0.177839   -1.727689
  C     -0.959057   -1.188905    1.682411
  C      0.185850   -0.518540    1.610436
  C      2.973620   -0.682748    0.538312
  H      3.125873    0.224848   -2.059134
  H      1.390609    0.318988   -2.352093
  H      2.145873   -1.237351   -1.971802
  H      3.103115    1.943977    0.131118
  H      1.264064    3.495648   -0.061817
  H     -1.056715    2.704489   -0.589011
  H      0.444161   -2.502071   -0.072774
  H     -0.145834   -1.636854   -1.510120
  H     -2.174844   -2.218016    0.134773
  H     -3.228195    1.592612    0.131915
  H     -3.853349    0.014319    0.594804
  H     -2.595998    0.794239    1.566626
  H     -3.325538   -0.794015   -1.736911
  H     -1.704785   -0.620066   -2.411224
  H     -2.687649    0.803287   -2.122300
  H     -1.523140   -1.407533    2.577339
  H      0.726034   -0.064131    2.427409
  H      2.845964   -1.757500    0.409722
  H      3.977853   -0.424149    0.201183
  H      2.913316   -0.461831    1.602460

 Multiplicity           Mult            ....    1
 Number of Electrons    NEL             ....   80
 Basis Dimension        Dim             ....  295

ORBITAL ENERGIES
----------------

  NO   OCC          E(Eh)            E(eV)
   0   2.0000      -1.050760       -28.5926
   1   2.0000      -0.975997       -26.5582
   2   2.0000      -0.940633       -25.5959
   3   2.0000      -0.909199       -24.7406
   4   2.0000      -0.865570       -23.5534
   5   2.0000      -0.850554       -23.1448
   6   2.0000      -0.820288       -22.3212
   7   2.0000      -0.814621       -22.1670
   8   2.0000      -0.806860       -21.9558
   9   2.0000      -0.769111       -20.9286
  10   2.0000      -0.720488       -19.6055
  11   2.0000      -0.696206       -18.9447
  12   2.0000      -0.661744       -18.0070
  13   2.0000      -0.650186       -17.6924
  14   2.0000      -0.635342       -17.2885
  15   2.0000      -0.600395       -16.3376
  16   2.0000      -0.585280       -15.9263
  17   2.0000      -0.568103       -15.4589
  18   2.0000      -0.556848       -15.1526
  19   2.0000      -0.550653       -14.9840
  20   2.0000      -0.546874       -14.8812
  21   2.0000      -0.523659       -14.2495
  22   2.0000      -0.518573       -14.1111
  23   2.0000      -0.512508       -13.9461
  24   2.0000      -0.499431       -13.5902
  25   2.0000      -0.498098       -13.5539
  26   2.0000      -0.485729       -13.2174
  27   2.0000      -0.482730       -13.1357
  28   2.0000      -0.475165       -12.9299
  29   2.0000      -0.467137       -12.7114
  30   2.0000      -0.456532       -12.4229
  31   2.0000      -0.444039       -12.0829
  32   2.0000      -0.433997       -11.8097
  33   2.0000      -0.431863       -11.7516
  34   2.0000      -0.426429       -11.6037
  35   2.0000      -0.408889       -11.1264
  36   2.0000      -0.402599       -10.9553
  37   2.0000      -0.396217       -10.7816
  38   2.0000      -0.339808        -9.2467
  39   2.0000      -0.298443        -8.1211
  40   0.0000       0.051813         1.4099
  41   0.0000       0.088002         2.3947
  42   0.0000       0.096455         2.6247
  43   0.0000       0.098139         2.6705
  44   0.0000       0.100501         2.7348

MULLIKEN ATOMIC CHARGES
-----------------------
   0 C :    0.007187
   1 C :   -0.203547
   2 C :    0.050242
   3 C :   -0.039685
   4 C :   -0.035088
   5 C :    0.067242
   6 C :   -0.212445
   7 C :    0.037524
   8 C :   -0.015875
   9 C :   -0.233486
  10 C :    0.010598
  11 C :    0.013279
  12 C :   -0.027750
  13 C :    0.059815
  14 C :    0.011417
  15 H :    0.029454
  16 H :    0.038658
  17 H :    0.025996
  18 H :    0.013733
  19 H :    0.014877
  20 H :    0.013428
  21 H :    0.039419
  22 H :    0.020478
  23 H :    0.036552
  24 H :    0.023220
  25 H :    0.026098
  26 H :    0.037744
  27 H :    0.024594
  28 H :    0.016359
  29 H :    0.030174
  30 H :    0.022305
  31 H :    0.019051
  32 H :    0.023938
  33 H :    0.026397
  34 H :    0.028095
Sum of atomic charges:   -0.0000000

LOEWDIN ATOMIC CHARGES
----------------------
   0 C :   -0.095126
   1 C :   -0.079932
   2 C :   -0.030586
   3 C :   -0.055208
   4 C :   -0.061627
   5 C :    0.008442
   6 C :   -0.042749
   7 C :   -0.048468
   8 C :   -0.040326
   9 C :   -0.063415
  10 C :   -0.099050
  11 C :   -0.097195
  12 C :   -0.025060
  13 C :   -0.003391
  14 C :   -0.100512
  15 H :    0.045552
  16 H :    0.048060
  17 H :    0.042260
  18 H :    0.038733
  19 H :    0.042479
  20 H :    0.037658
  21 H :    0.044183
  22 H :    0.035934
  23 H :    0.037758
  24 H :    0.043746
  25 H :    0.043776
  26 H :    0.046035
  27 H :    0.044066
  28 H :    0.039645
  29 H :    0.046586
  30 H :    0.030508
  31 H :    0.034005
  32 H :    0.044993
  33 H :    0.045044
  34 H :    0.043183

  Mayer bond orders larger than 0.100000
B(  0-C ,  1-C ) :   0.9982 B(  0-C , 15-H ) :   0.9869 B(  0-C , 16-H ) :   0.9882
B(  0-C , 17-H ) :   0.9853 B(  1-C ,  2-C ) :   1.0132 B(  1-C ,  6-C ) :   1.0320
B(  1-C , 14-C ) :   1.0117 B(  2-C ,  3-C ) :   1.8660 B(  2-C , 18-H ) :   0.9894
B(  3-C ,  4-C ) :   1.1204 B(  3-C , 19-H ) :   0.9869 B(  4-C ,  5-C ) :   1.8567
B(  4-C , 20-H ) :   0.9760 B(  5-C ,  6-C ) :   0.9943 B(  5-C ,  9-C ) :   1.0170
B(  6-C ,  7-C ) :   0.9809 B(  6-C , 13-C ) :   1.0132 B(  7-C ,  8-C ) :   0.9914
B(  7-C , 21-H ) :   0.9940 B(  7-C , 22-H ) :   0.9960 B(  8-C ,  9-C ) :   0.9540
B(  8-C , 12-C ) :   1.0186 B(  8-C , 23-H ) :   0.9994 B(  9-C , 10-C ) :   1.0146
B(  9-C , 11-C ) :   1.0048 B( 10-C , 24-H ) :   0.9892 B( 10-C , 25-H ) :   0.9867
B( 10-C , 26-H ) :   0.9860 B( 11-C , 27-H ) :   0.9877 B( 11-C , 28-H ) :   0.9921
B( 11-C , 29-H ) :   0.9889 B( 12-C , 13-C ) :   1.8993 B( 12-C , 30-H ) :   0.9969
B( 13-C , 31-H ) :   0.9969 B( 14-C , 32-H ) :   0.9887 B( 14-C , 33-H ) :   0.9864
B( 14-C , 34-H ) :   0.9901

Dispersion correction           -0.054857468
FINAL SINGLE POINT ENERGY       -97.470166275255

DIPOLE MOMENT
-------------

Method             : SCF
Type of density    : Electron Density
Multiplicity       :   1
Irrep              :   0
Energy             :   -97.4153088070558653 Eh
Relativity type    :
Basis              : AO
                                X                 Y                 Z
Electronic contribution:      0.782883401       3.085212573       4.925631397
Nuclear contribution   :     -0.946237638      -3.243222078      -4.966193521
                        -----------------------------------------
Total Dipole Moment    :     -0.163354237      -0.158009505      -0.040562124
                        -----------------------------------------
Magnitude (a.u.)       :      0.230861206
Magnitude (Debye)      :      0.586802551

VIBRATIONAL FREQUENCIES
-----------------------

Scaling factor for frequencies =  1.000000000  (already applied!)

     0:       0.00 cm**-1
     1:       0.00 cm**-1
     2:       0.00 cm**-1
     3:       0.00 cm**-1
     4:       0.00 cm**-1
     5:       0.00 cm**-1
     6:      75.75 cm**-1
     7:     136.97 cm**-1
     8:     179.90 cm**-1
     9:     200.70 cm**-1
    10:     216.49 cm**-1
    11:     238.64 cm**-1
    12:     256.97 cm**-1
    13:     266.39 cm**-1
    14:     278.07 cm**-1
    15:     287.23 cm**-1
    16:     315.51 cm**-1
    17:     318.67 cm**-1
    18:     350.41 cm**-1
    19:     377.88 cm**-1
    20:     416.07 cm**-1
    21:     422.35 cm**-1
    22:     469.47 cm**-1
    23:     475.85 cm**-1
    24:     510.37 cm**-1
    25:     531.00 cm**-1
    26:     556.69 cm**-1
    27:     602.53 cm**-1
    28:     632.97 cm**-1
    29:     673.63 cm**-1
    30:     692.69 cm**-1
    31:     761.40 cm**-1
    32:     764.01 cm**-1
    33:     805.86 cm**-1
    34:     811.69 cm**-1
    35:     869.68 cm**-1
    36:     901.79 cm**-1
    37:     909.68 cm**-1
    38:     952.33 cm**-1
    39:     955.31 cm**-1
    40:     970.14 cm**-1
    41:     976.45 cm**-1
    42:     981.16 cm**-1
    43:     983.19 cm**-1
    44:     991.55 cm**-1
    45:     997.66 cm**-1
    46:    1013.68 cm**-1
    47:    1036.81 cm**-1
    48:    1042.97 cm**-1
    49:    1053.44 cm**-1
    50:    1059.23 cm**-1
    51:    1093.38 cm**-1
    52:    1118.26 cm**-1
    53:    1143.54 cm**-1
    54:    1172.53 cm**-1
    55:    1209.11 cm**-1
    56:    1210.28 cm**-1
    57:    1227.86 cm**-1
    58:    1236.15 cm**-1
    59:    1252.00 cm**-1
    60:    1263.08 cm**-1
    61:    1272.76 cm**-1
    62:    1302.73 cm**-1
    63:    1320.45 cm**-1
    64:    1347.52 cm**-1
    65:    1362.23 cm**-1
    66:    1383.99 cm**-1
    67:    1413.61 cm**-1
    68:    1426.66 cm**-1
    69:    1431.23 cm**-1
    70:    1444.42 cm**-1
    71:    1450.31 cm**-1
    72:    1459.06 cm**-1
    73:    1510.20 cm**-1
    74:    1513.30 cm**-1
    75:    1514.14 cm**-1
    76:    1517.44 cm**-1
    77:    1528.60 cm**-1
    78:    1533.80 cm**-1
    79:    1536.70 cm**-1
    80:    1540.38 cm**-1
    81:    1545.63 cm**-1
    82:    1694.52 cm**-1
    83:    1730.03 cm**-1
    84:    1792.30 cm**-1
    85:    3094.48 cm**-1
    86:    3096.35 cm**-1
    87:    3099.55 cm**-1
    88:    3100.97 cm**-1
    89:    3138.80 cm**-1
    90:    3169.00 cm**-1
    91:    3180.55 cm**-1
    92:    3183.35 cm**-1
    93:    3185.35 cm**-1
    94:    3186.78 cm**-1
    95:    3195.15 cm**-1
    96:    3200.34 cm**-1
    97:    3203.81 cm**-1
    98:    3209.83 cm**-1
    99:    3217.58 cm**-1
   100:    3222.25 cm**-1
   101:    3238.34 cm**-1
   102:    3255.82 cm**-1
   103:    3270.06 cm**-1
   104:    3296.42 cm**-1

IR SPECTRUM
-----------

 Mode   freq       eps      Int      T**2         TX        TY        TZ
       cm**-1   L/(mol*cm) km/mol    a.u.
----------------------------------------------------------------------------
  6:     75.75   0.000004    0.02  0.000018  (-0.003419  0.002446 -0.000254)
  7:    136.97   0.000065    0.33  0.000149  ( 0.004690 -0.005874 -0.009614)
  8:    179.90   0.000033    0.17  0.000057  ( 0.000615  0.002226  0.007199)
  9:    200.70   0.000009    0.05  0.000014  ( 0.002971  0.002339 -0.000443)
 10:    216.49   0.000017    0.08  0.000024  ( 0.004664  0.000366  0.001472)
 11:    238.64   0.000013    0.07  0.000017  ( 0.003214 -0.002578  0.000193)
 12:    256.97   0.000033    0.17  0.000040  (-0.003909  0.004841  0.001039)
 13:    266.39   0.000120    0.61  0.000141  ( 0.004651 -0.004073 -0.010142)
 14:    278.07   0.000040    0.20  0.000045  ( 0.001943 -0.005232 -0.003685)
 15:    287.23   0.000006    0.03  0.000007  (-0.002377 -0.000994 -0.000053)
 16:    315.51   0.000192    0.97  0.000189  ( 0.007837  0.003319 -0.010817)
 17:    318.67   0.000080    0.40  0.000078  (-0.002665 -0.002234  0.008119)
 18:    350.41   0.000038    0.19  0.000034  (-0.000913 -0.004062 -0.004080)
 19:    377.88   0.000039    0.20  0.000032  ( 0.000414  0.001684 -0.005415)
 20:    416.07   0.000040    0.20  0.000030  ( 0.001616 -0.001269 -0.005104)
 21:    422.35   0.000154    0.78  0.000114  (-0.008497  0.006288 -0.001437)
 22:    469.47   0.000143    0.72  0.000095  (-0.002048  0.004867 -0.008199)
 23:    475.85   0.000636    3.22  0.000417  ( 0.017798 -0.009620 -0.002837)
 24:    510.37   0.000511    2.58  0.000313  (-0.002600  0.012588 -0.012140)
 25:    531.00   0.000009    0.05  0.000005  (-0.001141 -0.001467 -0.001395)
 26:    556.69   0.000120    0.61  0.000067  ( 0.002501 -0.004668  0.006257)
 27:    602.53   0.000192    0.97  0.000099  ( 0.007510  0.003915 -0.005269)
 28:    632.97   0.000051    0.26  0.000025  (-0.000191 -0.000419  0.004995)
 29:    673.63   0.001901    9.61  0.000881  (-0.003233  0.024283 -0.016746)
 30:    692.69   0.000693    3.50  0.000312  ( 0.002565  0.008445  0.015313)
 31:    761.40   0.009989   50.48  0.004094  ( 0.011090  0.008599 -0.062428)
 32:    764.01   0.007412   37.46  0.003027  ( 0.028424 -0.045744  0.011271)
 33:    805.86   0.001263    6.38  0.000489  (-0.007026 -0.019393 -0.007972)
 34:    811.69   0.001056    5.34  0.000406  (-0.017367  0.008712  0.005333)
 35:    869.68   0.001067    5.39  0.000383  (-0.005542  0.018305  0.004131)
 36:    901.79   0.002320   11.73  0.000803  ( 0.015293  0.005973 -0.023096)
 37:    909.68   0.000407    2.06  0.000140  ( 0.007802  0.008661 -0.001944)
 38:    952.33   0.001675    8.47  0.000549  (-0.023074 -0.003723 -0.001626)
 39:    955.31   0.000354    1.79  0.000116  ( 0.001647  0.009560 -0.004645)
 40:    970.14   0.000457    2.31  0.000147  ( 0.001646  0.008331 -0.008655)
 41:    976.45   0.000442    2.23  0.000141  (-0.011220  0.001081  0.003768)
 42:    981.16   0.000239    1.21  0.000076  (-0.008444 -0.001811 -0.001218)
 43:    983.19   0.000175    0.89  0.000056  ( 0.002088  0.005529  0.004552)
 44:    991.55   0.000221    1.12  0.000070  ( 0.003825 -0.005516 -0.004962)
 45:    997.66   0.000849    4.29  0.000266  (-0.007027 -0.014636  0.001422)
 46:   1013.68   0.000018    0.09  0.000006  (-0.001489  0.001535  0.001044)
 47:   1036.81   0.001284    6.49  0.000387  (-0.008733  0.017434 -0.002529)
 48:   1042.97   0.000313    1.58  0.000094  (-0.006048  0.007559 -0.000084)
 49:   1053.44   0.000083    0.42  0.000025  ( 0.000756  0.004665 -0.001497)
 50:   1059.23   0.000421    2.13  0.000124  (-0.009618  0.000816 -0.005548)
 51:   1093.38   0.000064    0.32  0.000018  ( 0.000334  0.001706 -0.003894)
 52:   1118.26   0.000340    1.72  0.000095  ( 0.000149 -0.006702  0.007074)
 53:   1143.54   0.000602    3.04  0.000164  ( 0.004030  0.001496  0.012080)
 54:   1172.53   0.000407    2.06  0.000108  (-0.005248 -0.001966  0.008771)
 55:   1209.11   0.000048    0.24  0.000012  ( 0.002850  0.000960 -0.001832)
 56:   1210.28   0.000166    0.84  0.000043  (-0.001640  0.001997  0.006002)
 57:   1227.86   0.000305    1.54  0.000078  (-0.005414  0.000087 -0.006947)
 58:   1236.15   0.002043   10.33  0.000516  ( 0.016970  0.010470 -0.010874)
 59:   1252.00   0.000711    3.59  0.000177  (-0.008960  0.006395 -0.007490)
 60:   1263.08   0.000269    1.36  0.000066  ( 0.007571 -0.002472  0.001722)
 61:   1272.76   0.000356    1.80  0.000087  (-0.003382  0.008691  0.000514)
 62:   1302.73   0.000555    2.80  0.000133  (-0.007834 -0.006848 -0.004964)
 63:   1320.45   0.000326    1.65  0.000077  ( 0.002893 -0.001686 -0.008111)
 64:   1347.52   0.002201   11.13  0.000510  (-0.022514 -0.000881 -0.001465)
 65:   1362.23   0.000141    0.71  0.000032  ( 0.004091 -0.002120 -0.003337)
 66:   1383.99   0.000073    0.37  0.000016  ( 0.003216  0.001383 -0.002052)
 67:   1413.61   0.000897    4.54  0.000198  ( 0.012708  0.006028  0.000547)
 68:   1426.66   0.002153   10.88  0.000471  ( 0.004543 -0.002726  0.021043)
 69:   1431.23   0.003630   18.34  0.000791  ( 0.006970 -0.004738 -0.026842)
 70:   1444.42   0.002656   13.42  0.000574  (-0.016871  0.016991  0.000679)
 71:   1450.31   0.001706    8.62  0.000367  (-0.014598  0.011068 -0.005618)
 72:   1459.06   0.000798    4.03  0.000171  ( 0.011781  0.003308 -0.004586)
 73:   1510.20   0.000514    2.60  0.000106  ( 0.001107  0.001772  0.010089)
 74:   1513.30   0.000283    1.43  0.000058  ( 0.001029  0.000247  0.007566)
 75:   1514.14   0.000356    1.80  0.000073  (-0.000261  0.006016 -0.006086)
 76:   1517.44   0.000183    0.92  0.000038  (-0.004681  0.002474 -0.003094)
 77:   1528.60   0.001157    5.85  0.000236  (-0.002756  0.000740 -0.015103)
 78:   1533.80   0.002591   13.09  0.000527  (-0.015367  0.015627  0.006842)
 79:   1536.70   0.002424   12.25  0.000492  (-0.003341 -0.021916 -0.000880)
 80:   1540.38   0.002638   13.33  0.000534  ( 0.018010  0.014117 -0.003285)
 81:   1545.63   0.001076    5.44  0.000217  (-0.012107  0.000167  0.008403)
 82:   1694.52   0.000366    1.85  0.000067  ( 0.002154 -0.005971  0.005199)
 83:   1730.03   0.002575   13.01  0.000465  (-0.013450 -0.016842  0.000039)
 84:   1792.30   0.001971    9.96  0.000343  (-0.011005 -0.014095  0.004832)
 85:   3094.48   0.005189   26.22  0.000523  (-0.002998  0.002288  0.022562)
 86:   3096.35   0.004487   22.67  0.000452  (-0.012478  0.007678  0.015412)
 87:   3099.55   0.007808   39.46  0.000786  ( 0.025133 -0.012043  0.003073)
 88:   3100.97   0.009270   46.85  0.000933  ( 0.028211  0.000486  0.011697)
 89:   3138.80   0.004558   23.03  0.000453  ( 0.010871 -0.014449 -0.011234)
 90:   3169.00   0.007281   36.79  0.000717  ( 0.017705  0.019497  0.004835)
 91:   3180.55   0.000351    1.77  0.000034  ( 0.001140  0.005727 -0.000537)
 92:   3183.35   0.000287    1.45  0.000028  ( 0.004876  0.000199 -0.002083)
 93:   3185.35   0.004372   22.09  0.000428  ( 0.009246  0.018029 -0.004219)
 94:   3186.78   0.007875   39.80  0.000771  ( 0.015850  0.021997 -0.006008)
 95:   3195.15   0.002614   13.21  0.000255  ( 0.013191 -0.008306  0.003503)
 96:   3200.34   0.003120   15.77  0.000304  ( 0.003769 -0.008419 -0.014804)
 97:   3203.81   0.002937   14.84  0.000286  (-0.012342  0.010625 -0.004568)
 98:   3209.83   0.003007   15.20  0.000292  (-0.011126  0.000438 -0.012977)
 99:   3217.58   0.003607   18.23  0.000350  ( 0.007415 -0.002756 -0.016949)
100:   3222.25   0.000445    2.25  0.000043  (-0.006541 -0.000146 -0.000552)
101:   3238.34   0.003879   19.60  0.000374  ( 0.018988 -0.000766  0.003560)
102:   3255.82   0.004609   23.29  0.000442  (-0.004225 -0.020581  0.000592)
103:   3270.06   0.000700    3.54  0.000067  ( 0.005790  0.003653 -0.004464)
104:   3296.42   0.001265    6.39  0.000120  ( 0.001057  0.001781 -0.010745)

--------------------------
THERMOCHEMISTRY AT 298.15K
--------------------------

Temperature         ...   298.15 K
Pressure            ...     1.00 atm
Total Mass          ...   200.33 AMU
Quasi RRHO          ...     True
Cut-Off Frequency   ...     1.00 cm^-1

Throughout the following assumptions are being made:
  (1) The electronic state is orbitally nondegenerate
  (2) There are no thermally accessible electronically excited states
  (3) Hindered rotations indicated by low frequency modes are not
      treated as such but are treated as vibrations and this may
      cause some error
  (4) All equations used are the standard statistical mechanics
      equations for an ideal gas
  (5) All vibrations are strictly harmonic

freq.      75.75  E(vib)   ...       0.49
freq.     136.97  E(vib)   ...       0.42
freq.     179.90  E(vib)   ...       0.37
freq.     200.70  E(vib)   ...       0.35
freq.     216.49  E(vib)   ...       0.34
freq.     238.64  E(vib)   ...       0.32
freq.     256.97  E(vib)   ...       0.30
freq.     266.39  E(vib)   ...       0.29
freq.     278.07  E(vib)   ...       0.28
freq.     287.23  E(vib)   ...       0.27
freq.     315.51  E(vib)   ...       0.25
freq.     318.67  E(vib)   ...       0.25
freq.     350.41  E(vib)   ...       0.23
freq.     377.88  E(vib)   ...       0.21
freq.     416.07  E(vib)   ...       0.18
freq.     422.35  E(vib)   ...       0.18
freq.     469.47  E(vib)   ...       0.16
freq.     475.85  E(vib)   ...       0.15
freq.     510.37  E(vib)   ...       0.14
freq.     531.00  E(vib)   ...       0.13
freq.     556.69  E(vib)   ...       0.12
freq.     602.53  E(vib)   ...       0.10
freq.     632.97  E(vib)   ...       0.09
freq.     673.63  E(vib)   ...       0.08
freq.     692.69  E(vib)   ...       0.07
freq.     761.40  E(vib)   ...       0.06
freq.     764.01  E(vib)   ...       0.06
freq.     805.86  E(vib)   ...       0.05
freq.     811.69  E(vib)   ...       0.05
freq.     869.68  E(vib)   ...       0.04
freq.     901.79  E(vib)   ...       0.03
freq.     909.68  E(vib)   ...       0.03
freq.     952.33  E(vib)   ...       0.03
freq.     955.31  E(vib)   ...       0.03
freq.     970.14  E(vib)   ...       0.03
freq.     976.45  E(vib)   ...       0.03
freq.     981.16  E(vib)   ...       0.02
freq.     983.19  E(vib)   ...       0.02
freq.     991.55  E(vib)   ...       0.02
freq.     997.66  E(vib)   ...       0.02
freq.    1013.68  E(vib)   ...       0.02
freq.    1036.81  E(vib)   ...       0.02
freq.    1042.97  E(vib)   ...       0.02
freq.    1053.44  E(vib)   ...       0.02
freq.    1059.23  E(vib)   ...       0.02
freq.    1093.38  E(vib)   ...       0.02
freq.    1118.26  E(vib)   ...       0.01
freq.    1143.54  E(vib)   ...       0.01
freq.    1172.53  E(vib)   ...       0.01
freq.    1209.11  E(vib)   ...       0.01
freq.    1210.28  E(vib)   ...       0.01
freq.    1227.86  E(vib)   ...       0.01
freq.    1236.15  E(vib)   ...       0.01
freq.    1252.00  E(vib)   ...       0.01
freq.    1263.08  E(vib)   ...       0.01
freq.    1272.76  E(vib)   ...       0.01
freq.    1302.73  E(vib)   ...       0.01
freq.    1320.45  E(vib)   ...       0.01
freq.    1347.52  E(vib)   ...       0.01
freq.    1362.23  E(vib)   ...       0.01
freq.    1383.99  E(vib)   ...       0.00
freq.    1413.61  E(vib)   ...       0.00
freq.    1426.66  E(vib)   ...       0.00
freq.    1431.23  E(vib)   ...       0.00
freq.    1444.42  E(vib)   ...       0.00
freq.    1450.31  E(vib)   ...       0.00
freq.    1459.06  E(vib)   ...       0.00
freq.    1510.20  E(vib)   ...       0.00
freq.    1513.30  E(vib)   ...       0.00
freq.    1514.14  E(vib)   ...       0.00
freq.    1517.44  E(vib)   ...       0.00
freq.    1528.60  E(vib)   ...       0.00
freq.    1533.80  E(vib)   ...       0.00
freq.    1536.70  E(vib)   ...       0.00
freq.    1540.38  E(vib)   ...       0.00
freq.    1545.63  E(vib)   ...       0.00
freq.    1694.52  E(vib)   ...       0.00
freq.    1730.03  E(vib)   ...       0.00
freq.    1792.30  E(vib)   ...       0.00
freq.    3094.48  E(vib)   ...       0.00
freq.    3096.35  E(vib)   ...       0.00
freq.    3099.55  E(vib)   ...       0.00
freq.    3100.97  E(vib)   ...       0.00
freq.    3138.80  E(vib)   ...       0.00
freq.    3169.00  E(vib)   ...       0.00
freq.    3180.55  E(vib)   ...       0.00
freq.    3183.35  E(vib)   ...       0.00
freq.    3185.35  E(vib)   ...       0.00
freq.    3186.78  E(vib)   ...       0.00
freq.    3195.15  E(vib)   ...       0.00
freq.    3200.34  E(vib)   ...       0.00
freq.    3203.81  E(vib)   ...       0.00
freq.    3209.83  E(vib)   ...       0.00
freq.    3217.58  E(vib)   ...       0.00
freq.    3222.25  E(vib)   ...       0.00
freq.    3238.34  E(vib)   ...       0.00
freq.    3255.82  E(vib)   ...       0.00
freq.    3270.06  E(vib)   ...       0.00
freq.    3296.42  E(vib)   ...       0.00

------------
INNER ENERGY
------------

The inner energy is: U= E(el) + E(ZPE) + E(vib) + E(rot) + E(trans)
    E(el)   - is the total energy from the electronic structure calculation
              = E(kin-el) + E(nuc-el) + E(el-el) + E(nuc-nuc)
    E(ZPE)  - the the zero temperature vibrational energy from the frequency calculation
    E(vib)  - the the finite temperature correction to E(ZPE) due to population
              of excited vibrational states
    E(rot)  - is the rotational thermal energy
    E(trans)- is the translational thermal energy

Summary of contributions to the inner energy U:
Electronic energy                ...    -97.47016628 Eh
Zero point energy                ...      0.31795074 Eh     199.52 kcal/mol
Thermal vibrational correction   ...      0.01047170 Eh       6.57 kcal/mol
Thermal rotational correction    ...      0.00141627 Eh       0.89 kcal/mol
Thermal translational correction ...      0.00141627 Eh       0.89 kcal/mol
-----------------------------------------------------------------------
Total thermal energy                    -97.13891130 Eh

Summary of corrections to the electronic energy:
(perhaps to be used in another calculation)
Total thermal correction                  0.01330424 Eh       8.35 kcal/mol
Non-thermal (ZPE) correction              0.31795074 Eh     199.52 kcal/mol
-----------------------------------------------------------------------
Total correction                          0.33125498 Eh     207.87 kcal/mol

--------
ENTHALPY
--------

The enthalpy is H = U + kB*T
                kB is Boltzmann's constant
Total thermal energy              ...    -97.13891130 Eh
Thermal Enthalpy correction       ...      0.00094421 Eh       0.59 kcal/mol
-----------------------------------------------------------------------
Total Enthalpy                    ...    -97.13796709 Eh

Rotational constants in cm-1:     0.034888     0.019780     0.017459

                             ****ORCA TERMINATED NORMALLY****
TOTAL RUN TIME: 0 days 0 hours 17 minutes 8 seconds 878 msec
