                         Program Version 6.0.1  -  RELEASE   -
|  1> ! wB97X-3c OPT FREQ TightSCF
|  2> %pal
|  3>   nprocs 40
|  4> end
|  5> * xyz 0 1
|  6> C     -1.647541     2.608052     1.555788
|  7> C     -1.521297     1.526449     0.523499
|  8> C     -2.183544     1.629302    -0.643077
|  9> C     -2.096282     0.555079    -1.655969
| 10> C     -1.580555    -0.640977    -1.339856
| 11> C     -1.183152    -0.948438     0.095113
| 12> C     -0.576495     0.353997     0.741168
| 13> C      0.809213     0.746760     0.154238
| 14> C      1.670293    -0.446942    -0.098145
| 15> C      1.206442    -1.730907    -0.195819
| 16> C     -0.183574    -2.142837     0.153146
| 17> O      2.168096    -2.536252    -0.585650
| 18> C      3.256219    -1.820073    -0.777465
| 19> C      2.994752    -0.493349    -0.480820
| 20> C      3.917615     0.663997    -0.683942
| 21> C     -2.458267    -1.372702     0.861862
| 22> H     -1.346111     3.583400     1.118548
| 23> H     -2.700089     2.672184     1.903464
| 24> H     -0.997249     2.401406     2.431454
| 25> H     -2.794388     2.498753    -0.853153
| 26> H     -2.454327     0.739625    -2.660433
| 27> H     -1.511071    -1.406062    -2.103602
| 28> H     -0.444984     0.174988     1.832073
| 29> H      0.687634     1.277350    -0.815644
| 30> H      1.326831     1.434298     0.857273
| 31> H     -0.146099    -2.556440     1.184525
| 32> H     -0.508627    -2.963336    -0.523087
| 33> H      4.198397    -2.222659    -1.125288
| 34> H      4.971743     0.315673    -0.701660
| 35> H      3.681356     1.160588    -1.647896
| 36> H      3.798076     1.394193     0.143396
| 37> H     -2.880956    -2.304555     0.426951
| 38> H     -3.244638    -0.589671     0.815705
| 39> H     -2.227423    -1.560897     1.932523
| 40> *
| 41>
| 42>                          ****END OF INPUT****
 Total Charge           Charge          ....    0
 Multiplicity           Mult            ....    1
 Number of Electrons    NEL             ....   84
Dispersion correction           -0.050103219
FINAL SINGLE POINT ENERGY      -112.309272805315
Dispersion correction             ... done (  0.1 sec)
Dispersion correction           -0.050688138
FINAL SINGLE POINT ENERGY      -112.322696738878
Dispersion correction             ... done (  0.1 sec)
Dispersion correction           -0.050851534
FINAL SINGLE POINT ENERGY      -112.325770135577
Dispersion correction             ... done (  0.1 sec)
FINAL SINGLE POINT ENERGY      -112.326620226163
FINAL SINGLE POINT ENERGY      -112.326954723674
FINAL SINGLE POINT ENERGY      -112.327479398686
FINAL SINGLE POINT ENERGY      -112.328364023640
FINAL SINGLE POINT ENERGY      -112.329083654048
FINAL SINGLE POINT ENERGY      -112.329745100579
FINAL SINGLE POINT ENERGY      -112.330135886852
FINAL SINGLE POINT ENERGY      -112.330284630606
FINAL SINGLE POINT ENERGY      -112.330329535609
FINAL SINGLE POINT ENERGY      -112.330346205157
FINAL SINGLE POINT ENERGY      -112.330353985622
Dispersion correction             ... done (  0.1 sec)
Dispersion correction           -0.050807705
FINAL SINGLE POINT ENERGY      -112.330357072298
Dispersion correction             ... done (  0.1 sec)
Dispersion correction           -0.050810784
FINAL SINGLE POINT ENERGY      -112.330358193891
Dispersion correction             ... done (  0.1 sec)
                    ***********************HURRAY********************

CARTESIAN COORDINATES (ANGSTROEM)
---------------------------------
  C     -1.599147    2.539050    1.578700
  C     -1.546063    1.520098    0.493580
  C     -2.230416    1.615521   -0.646379
  C     -2.117103    0.576644   -1.666056
  C     -1.602084   -0.613097   -1.365600
  C     -1.193971   -0.921401    0.054640
  C     -0.591449    0.361786    0.655545
  C      0.748837    0.772955    0.015260
  C      1.630919   -0.401379   -0.197869
  C      1.161574   -1.659201   -0.172820
  C     -0.213028   -2.100147    0.124732
  O      2.150009   -2.547292   -0.414034
  C      3.280888   -1.819078   -0.603779
  C      3.034030   -0.497994   -0.486484
  C      3.998261    0.625286   -0.627248
  C     -2.448894   -1.326953    0.833201
  H     -2.233222    3.381205    1.309539
  H     -1.985194    2.098471    2.499572
  H     -0.601756    2.919607    1.805766
  H     -2.870262    2.468422   -0.835046
  H     -2.473433    0.785082   -2.666420
  H     -1.531581   -1.393613   -2.113590
  H     -0.415490    0.177111    1.719073
  H      0.551007    1.266010   -0.937975
  H      1.233103    1.514408    0.653176
  H     -0.246415   -2.545722    1.122088
  H     -0.530582   -2.879629   -0.570188
  H      4.174843   -2.378201   -0.816202
  H      4.999202    0.258745   -0.845179
  H      3.703478    1.296396   -1.433532
  H      4.049984    1.215891    0.287213
  H     -2.855595   -2.255615    0.433260
  H     -3.220333   -0.563695    0.766951
  H     -2.210119   -1.489674    1.885327

 Multiplicity           Mult            ....    1
 Number of Electrons    NEL             ....   84
 Basis Dimension        Dim             ....  298

ORBITAL ENERGIES
----------------

  NO   OCC          E(Eh)            E(eV)
   0   2.0000      -1.231027       -33.4980
   1   2.0000      -1.018972       -27.7276
   2   2.0000      -0.959003       -26.0958
   3   2.0000      -0.946142       -25.7458
   4   2.0000      -0.917171       -24.9575
   5   2.0000      -0.886633       -24.1265
   6   2.0000      -0.874782       -23.8040
   7   2.0000      -0.833990       -22.6940
   8   2.0000      -0.815381       -22.1877
   9   2.0000      -0.807519       -21.9737
  10   2.0000      -0.775271       -21.0962
  11   2.0000      -0.725041       -19.7294
  12   2.0000      -0.702141       -19.1062
  13   2.0000      -0.676159       -18.3992
  14   2.0000      -0.655920       -17.8485
  15   2.0000      -0.625767       -17.0280
  16   2.0000      -0.616159       -16.7665
  17   2.0000      -0.591111       -16.0849
  18   2.0000      -0.578911       -15.7530
  19   2.0000      -0.573906       -15.6168
  20   2.0000      -0.560119       -15.2416
  21   2.0000      -0.543244       -14.7824
  22   2.0000      -0.536547       -14.6002
  23   2.0000      -0.535910       -14.5829
  24   2.0000      -0.529169       -14.3994
  25   2.0000      -0.525268       -14.2933
  26   2.0000      -0.518123       -14.0989
  27   2.0000      -0.511901       -13.9295
  28   2.0000      -0.502058       -13.6617
  29   2.0000      -0.489419       -13.3178
  30   2.0000      -0.484622       -13.1872
  31   2.0000      -0.477057       -12.9814
  32   2.0000      -0.472735       -12.8638
  33   2.0000      -0.465493       -12.6667
  34   2.0000      -0.460099       -12.5199
  35   2.0000      -0.424788       -11.5591
  36   2.0000      -0.423269       -11.5177
  37   2.0000      -0.406022       -11.0484
  38   2.0000      -0.404179       -10.9983
  39   2.0000      -0.353804        -9.6275
  40   2.0000      -0.308902        -8.4057
  41   2.0000      -0.302715        -8.2373
  42   0.0000       0.051609         1.4044
  43   0.0000       0.081898         2.2286
  44   0.0000       0.092168         2.5080
  45   0.0000       0.096509         2.6262
  46   0.0000       0.099260         2.7010

MULLIKEN ATOMIC CHARGES
-----------------------
   0 C :   -0.028349
   1 C :   -0.074150
   2 C :   -0.024453
   3 C :   -0.054561
   4 C :    0.075314
   5 C :   -0.242865
   6 C :   -0.060977
   7 C :   -0.021187
   8 C :   -0.029588
   9 C :    0.124264
  10 C :   -0.022543
  11 O :   -0.238751
  12 C :    0.116010
  13 C :   -0.093225
  14 C :   -0.051047
  15 C :    0.008190
  16 H :    0.029749
  17 H :    0.039950
  18 H :    0.031987
  19 H :    0.017815
  20 H :    0.018328
  21 H :    0.017102
  22 H :    0.036831
  23 H :    0.062688
  24 H :    0.034822
  25 H :    0.047819
  26 H :    0.045862
  27 H :    0.017507
  28 H :    0.031449
  29 H :    0.044104
  30 H :    0.042298
  31 H :    0.031607
  32 H :    0.045621
  33 H :    0.022380
Sum of atomic charges:   -0.0000000

LOEWDIN ATOMIC CHARGES
----------------------
   0 C :   -0.105832
   1 C :   -0.024849
   2 C :   -0.063634
   3 C :   -0.055657
   4 C :   -0.019672
   5 C :   -0.063782
   6 C :   -0.041261
   7 C :   -0.063888
   8 C :   -0.058372
   9 C :   -0.028091
  10 C :   -0.066114
  11 O :    0.031601
  12 C :   -0.029041
  13 C :   -0.071274
  14 C :   -0.109291
  15 C :   -0.094683
  16 H :    0.051822
  17 H :    0.050868
  18 H :    0.050193
  19 H :    0.038388
  20 H :    0.042268
  21 H :    0.038822
  22 H :    0.051516
  23 H :    0.053555
  24 H :    0.047735
  25 H :    0.055079
  26 H :    0.055823
  27 H :    0.037227
  28 H :    0.053030
  29 H :    0.051347
  30 H :    0.050012
  31 H :    0.046989
  32 H :    0.048027
  33 H :    0.041139

  Mayer bond orders larger than 0.100000
B(  0-C ,  1-C ) :   1.0348 B(  0-C , 16-H ) :   0.9890 B(  0-C , 17-H ) :   0.9752
B(  0-C , 18-H ) :   0.9766 B(  1-C ,  2-C ) :   1.8446 B(  1-C ,  6-C ) :   1.0237
B(  2-C ,  3-C ) :   1.1328 B(  2-C , 19-H ) :   0.9801 B(  3-C ,  4-C ) :   1.8647
B(  3-C , 20-H ) :   0.9864 B(  4-C ,  5-C ) :   1.0148 B(  4-C , 21-H ) :   0.9878
B(  5-C ,  6-C ) :   0.9887 B(  5-C , 10-C ) :   0.9960 B(  5-C , 15-C ) :   1.0083
B(  6-C ,  7-C ) :   0.9732 B(  6-C , 22-H ) :   0.9876 B(  7-C ,  8-C ) :   1.0194
B(  7-C , 23-H ) :   0.9728 B(  7-C , 24-H ) :   0.9837 B(  8-C ,  9-C ) :   1.6510
B(  8-C , 13-C ) :   1.2687 B(  9-C , 10-C ) :   1.0556 B(  9-C , 11-O ) :   1.0900
B( 10-C , 25-H ) :   0.9728 B( 10-C , 26-H ) :   0.9736 B( 11-O , 12-C ) :   1.0686
B( 12-C , 13-C ) :   1.6846 B( 12-C , 27-H ) :   1.0099 B( 13-C , 14-C ) :   1.0307
B( 14-C , 28-H ) :   0.9857 B( 14-C , 29-H ) :   0.9762 B( 14-C , 30-H ) :   0.9767
B( 15-C , 31-H ) :   0.9876 B( 15-C , 32-H ) :   0.9868 B( 15-C , 33-H ) :   0.9858

Dispersion correction           -0.050811118
FINAL SINGLE POINT ENERGY      -112.330358559817

DIPOLE MOMENT
-------------

Method             : SCF
Type of density    : Electron Density
Multiplicity       :   1
Irrep              :   0
Energy             :  -112.2795474414946142 Eh
Relativity type    :
Basis              : AO
                                X                 Y                 Z
Electronic contribution:      4.260674191      -7.006867157      -5.244959499
Nuclear contribution   :     -4.333419096       7.510255319       5.489128732
                        -----------------------------------------
Total Dipole Moment    :     -0.072744904       0.503388162       0.244169234
                        -----------------------------------------
Magnitude (a.u.)       :      0.564189753
Magnitude (Debye)      :      1.434056386

VIBRATIONAL FREQUENCIES
-----------------------

Scaling factor for frequencies =  1.000000000  (already applied!)

     0:       0.00 cm**-1
     1:       0.00 cm**-1
     2:       0.00 cm**-1
     3:       0.00 cm**-1
     4:       0.00 cm**-1
     5:       0.00 cm**-1
     6:      54.60 cm**-1
     7:      91.17 cm**-1
     8:     125.63 cm**-1
     9:     143.09 cm**-1
    10:     163.56 cm**-1
    11:     185.35 cm**-1
    12:     209.28 cm**-1
    13:     232.18 cm**-1
    14:     250.58 cm**-1
    15:     272.93 cm**-1
    16:     281.53 cm**-1
    17:     298.68 cm**-1
    18:     322.99 cm**-1
    19:     330.19 cm**-1
    20:     371.47 cm**-1
    21:     414.93 cm**-1
    22:     440.41 cm**-1
    23:     501.40 cm**-1
    24:     507.49 cm**-1
    25:     552.01 cm**-1
    26:     569.57 cm**-1
    27:     628.37 cm**-1
    28:     634.04 cm**-1
    29:     650.58 cm**-1
    30:     686.04 cm**-1
    31:     715.85 cm**-1
    32:     753.59 cm**-1
    33:     776.09 cm**-1
    34:     787.73 cm**-1
    35:     807.92 cm**-1
    36:     843.85 cm**-1
    37:     892.21 cm**-1
    38:     903.70 cm**-1
    39:     960.88 cm**-1
    40:     986.51 cm**-1
    41:     996.86 cm**-1
    42:    1007.31 cm**-1
    43:    1009.24 cm**-1
    44:    1031.09 cm**-1
    45:    1033.14 cm**-1
    46:    1066.18 cm**-1
    47:    1079.75 cm**-1
    48:    1086.03 cm**-1
    49:    1092.22 cm**-1
    50:    1111.51 cm**-1
    51:    1147.59 cm**-1
    52:    1175.53 cm**-1
    53:    1186.76 cm**-1
    54:    1193.73 cm**-1
    55:    1219.78 cm**-1
    56:    1232.96 cm**-1
    57:    1251.02 cm**-1
    58:    1266.54 cm**-1
    59:    1296.54 cm**-1
    60:    1319.47 cm**-1
    61:    1332.90 cm**-1
    62:    1347.12 cm**-1
    63:    1362.50 cm**-1
    64:    1392.16 cm**-1
    65:    1421.64 cm**-1
    66:    1425.95 cm**-1
    67:    1433.15 cm**-1
    68:    1450.96 cm**-1
    69:    1453.75 cm**-1
    70:    1461.99 cm**-1
    71:    1503.84 cm**-1
    72:    1508.00 cm**-1
    73:    1512.28 cm**-1
    74:    1515.15 cm**-1
    75:    1518.37 cm**-1
    76:    1518.76 cm**-1
    77:    1526.52 cm**-1
    78:    1530.57 cm**-1
    79:    1545.00 cm**-1
    80:    1671.59 cm**-1
    81:    1723.65 cm**-1
    82:    1764.00 cm**-1
    83:    1775.15 cm**-1
    84:    3092.16 cm**-1
    85:    3092.41 cm**-1
    86:    3095.05 cm**-1
    87:    3098.15 cm**-1
    88:    3104.72 cm**-1
    89:    3105.51 cm**-1
    90:    3146.77 cm**-1
    91:    3153.96 cm**-1
    92:    3168.67 cm**-1
    93:    3182.21 cm**-1
    94:    3186.21 cm**-1
    95:    3205.23 cm**-1
    96:    3207.40 cm**-1
    97:    3213.23 cm**-1
    98:    3230.49 cm**-1
    99:    3240.05 cm**-1
   100:    3259.07 cm**-1
   101:    3341.51 cm**-1

IR SPECTRUM
-----------

 Mode   freq       eps      Int      T**2         TX        TY        TZ
       cm**-1   L/(mol*cm) km/mol    a.u.
----------------------------------------------------------------------------
  6:     54.60   0.000008    0.04  0.000047  (-0.004682  0.000931 -0.004931)
  7:     91.17   0.000093    0.47  0.000320  ( 0.009393  0.004624  0.014498)
  8:    125.63   0.000189    0.95  0.000468  (-0.006900 -0.011033  0.017292)
  9:    143.09   0.000003    0.01  0.000006  (-0.000945  0.000500 -0.002202)
 10:    163.56   0.000114    0.58  0.000218  ( 0.004287 -0.005007 -0.013211)
 11:    185.35   0.000147    0.74  0.000247  ( 0.010651  0.008946  0.007330)
 12:    209.28   0.000214    1.08  0.000319  (-0.013237  0.000194 -0.011992)
 13:    232.18   0.000075    0.38  0.000100  ( 0.004837 -0.008690  0.001238)
 14:    250.58   0.000041    0.21  0.000051  (-0.001559 -0.006860 -0.001127)
 15:    272.93   0.000176    0.89  0.000201  (-0.013158 -0.005004 -0.001655)
 16:    281.53   0.000613    3.10  0.000679  ( 0.014200 -0.001566  0.021791)
 17:    298.68   0.000830    4.20  0.000868  (-0.011104 -0.007419  0.026252)
 18:    322.99   0.000180    0.91  0.000174  (-0.007081  0.000924 -0.011078)
 19:    330.19   0.000004    0.02  0.000004  (-0.000558  0.001954 -0.000305)
 20:    371.47   0.000316    1.60  0.000265  ( 0.003330  0.015199  0.004828)
 21:    414.93   0.000080    0.40  0.000060  ( 0.003874  0.000854 -0.006662)
 22:    440.41   0.000114    0.58  0.000081  (-0.005258 -0.005298  0.005006)
 23:    501.40   0.000018    0.09  0.000011  ( 0.002421 -0.000188 -0.002330)
 24:    507.49   0.000289    1.46  0.000178  ( 0.011140 -0.006452  0.003435)
 25:    552.01   0.000252    1.27  0.000142  ( 0.000073 -0.003041 -0.011533)
 26:    569.57   0.000263    1.33  0.000144  (-0.010111  0.005373 -0.003581)
 27:    628.37   0.001816    9.18  0.000902  ( 0.002271 -0.004230  0.029642)
 28:    634.04   0.000551    2.78  0.000271  ( 0.015574  0.004304 -0.003159)
 29:    650.58   0.000063    0.32  0.000030  (-0.000939  0.002747  0.004648)
 30:    686.04   0.000192    0.97  0.000087  (-0.008651  0.000584 -0.003481)
 31:    715.85   0.000532    2.69  0.000232  (-0.001590 -0.014229 -0.005188)
 32:    753.59   0.011329   57.25  0.004692  ( 0.062889  0.023445 -0.013666)
 33:    776.09   0.001275    6.44  0.000513  (-0.017173  0.012352  0.008070)
 34:    787.73   0.004455   22.52  0.001765  (-0.008031  0.003923 -0.041050)
 35:    807.92   0.001775    8.97  0.000686  ( 0.008825  0.024651  0.000260)
 36:    843.85   0.000813    4.11  0.000301  (-0.006287 -0.016136  0.000838)
 37:    892.21   0.001231    6.22  0.000430  (-0.014474 -0.011308  0.009646)
 38:    903.70   0.000151    0.76  0.000052  (-0.006716  0.001541  0.002137)
 39:    960.88   0.000895    4.52  0.000291  (-0.006148  0.015844 -0.001292)
 40:    986.51   0.000591    2.99  0.000187  (-0.004236  0.012803  0.002269)
 41:    996.86   0.000210    1.06  0.000066  (-0.006620  0.003135  0.003466)
 42:   1007.31   0.000043    0.22  0.000013  ( 0.002944 -0.001472  0.001564)
 43:   1009.24   0.000774    3.91  0.000239  ( 0.004655  0.012516  0.007802)
 44:   1031.09   0.000677    3.42  0.000205  ( 0.010260 -0.006536  0.007547)
 45:   1033.14   0.001706    8.62  0.000515  (-0.001534 -0.022623  0.001141)
 46:   1066.18   0.000895    4.52  0.000262  (-0.012098  0.010191  0.003418)
 47:   1079.75   0.000972    4.91  0.000281  ( 0.002739  0.016334 -0.002565)
 48:   1086.03   0.000054    0.27  0.000016  (-0.000532  0.000064 -0.003914)
 49:   1092.22   0.000804    4.06  0.000230  ( 0.006636 -0.006354  0.012054)
 50:   1111.51   0.000492    2.49  0.000138  ( 0.001479  0.011660  0.000238)
 51:   1147.59   0.002596   13.12  0.000706  (-0.006892  0.025636  0.001094)
 52:   1175.53   0.001944    9.83  0.000516  (-0.013315 -0.017453  0.005856)
 53:   1186.76   0.000507    2.56  0.000133  (-0.011073  0.003218  0.000588)
 54:   1193.73   0.003339   16.87  0.000873  (-0.023430 -0.017980 -0.000752)
 55:   1219.78   0.000812    4.10  0.000208  ( 0.012380 -0.004813 -0.005591)
 56:   1232.96   0.001030    5.20  0.000261  ( 0.015985 -0.001945 -0.001150)
 57:   1251.02   0.000529    2.67  0.000132  ( 0.010445  0.004762  0.000482)
 58:   1266.54   0.000741    3.74  0.000182  ( 0.011422 -0.007213  0.000067)
 59:   1296.54   0.001120    5.66  0.000270  ( 0.010455  0.012498 -0.002034)
 60:   1319.47   0.000466    2.36  0.000110  ( 0.002027  0.009918  0.002790)
 61:   1332.90   0.001904    9.62  0.000446  ( 0.015629 -0.014197 -0.000231)
 62:   1347.12   0.000172    0.87  0.000040  (-0.002823 -0.005022 -0.002579)
 63:   1362.50   0.000645    3.26  0.000148  (-0.009865 -0.006563  0.002692)
 64:   1392.16   0.000902    4.56  0.000202  ( 0.012373  0.004819 -0.005097)
 65:   1421.64   0.002292   11.59  0.000503  ( 0.007713 -0.021042 -0.000987)
 66:   1425.95   0.000911    4.60  0.000199  (-0.009084  0.008507  0.006666)
 67:   1433.15   0.001845    9.32  0.000402  (-0.013479 -0.012212  0.008416)
 68:   1450.96   0.001641    8.29  0.000353  ( 0.007851 -0.014068 -0.009662)
 69:   1453.75   0.001859    9.40  0.000399  (-0.009591 -0.017085  0.003895)
 70:   1461.99   0.000753    3.81  0.000161  (-0.010502 -0.006662 -0.002462)
 71:   1503.84   0.002277   11.51  0.000472  (-0.015980  0.014710  0.000842)
 72:   1508.00   0.002446   12.36  0.000506  (-0.006610 -0.019130  0.009825)
 73:   1512.28   0.002492   12.60  0.000514  ( 0.011937  0.000661 -0.019271)
 74:   1515.15   0.002770   14.00  0.000570  ( 0.019806  0.001541  0.013259)
 75:   1518.37   0.000886    4.48  0.000182  ( 0.000667  0.002185 -0.013300)
 76:   1518.76   0.002745   13.87  0.000564  ( 0.021532 -0.008636  0.005086)
 77:   1526.52   0.000936    4.73  0.000191  (-0.002351 -0.013630  0.000289)
 78:   1530.57   0.000816    4.12  0.000166  ( 0.005189  0.006623  0.009774)
 79:   1545.00   0.000415    2.10  0.000084  (-0.004503 -0.006733  0.004260)
 80:   1671.59   0.001174    5.94  0.000219  ( 0.007349  0.012841 -0.000605)
 81:   1723.65   0.001823    9.21  0.000330  (-0.003810 -0.007026 -0.016317)
 82:   1764.00   0.001681    8.50  0.000297  ( 0.012649  0.011707  0.000577)
 83:   1775.15   0.001532    7.74  0.000269  (-0.005602 -0.006638 -0.013922)
 84:   3092.16   0.003098   15.66  0.000313  ( 0.004090 -0.013486 -0.010678)
 85:   3092.41   0.001519    7.68  0.000153  ( 0.001455  0.012260 -0.000928)
 86:   3095.05   0.005407   27.32  0.000545  ( 0.011349  0.015050  0.013778)
 87:   3098.15   0.013853   70.01  0.001395  (-0.014150 -0.021490  0.027080)
 88:   3104.72   0.001522    7.69  0.000153  ( 0.002791 -0.011247 -0.004323)
 89:   3105.51   0.009580   48.41  0.000963  ( 0.017660  0.025509  0.000305)
 90:   3146.77   0.001668    8.43  0.000165  ( 0.004026  0.005903  0.010694)
 91:   3153.96   0.002384   12.05  0.000236  (-0.004676 -0.003064 -0.014306)
 92:   3168.67   0.001736    8.77  0.000171  (-0.010504 -0.006667  0.004028)
 93:   3182.21   0.003331   16.83  0.000327  ( 0.009296  0.005511  0.014486)
 94:   3186.21   0.001518    7.67  0.000149  (-0.001830  0.000229 -0.012053)
 95:   3205.23   0.002469   12.48  0.000240  ( 0.010050 -0.011068  0.004109)
 96:   3207.40   0.001983   10.02  0.000193  ( 0.011856 -0.006792 -0.002506)
 97:   3213.23   0.001947    9.84  0.000189  ( 0.009051 -0.010090  0.002306)
 98:   3230.49   0.000020    0.10  0.000002  ( 0.000615  0.000257 -0.001237)
 99:   3240.05   0.003863   19.52  0.000372  ( 0.007392 -0.016982 -0.005383)
100:   3259.07   0.003397   17.17  0.000325  ( 0.008866 -0.002265  0.015542)
101:   3341.51   0.000048    0.24  0.000005  ( 0.000729  0.001994  0.000087)

--------------------------
THERMOCHEMISTRY AT 298.15K
--------------------------

Temperature         ...   298.15 K
Pressure            ...     1.00 atm
Total Mass          ...   214.31 AMU
Quasi RRHO          ...     True
Cut-Off Frequency   ...     1.00 cm^-1

Throughout the following assumptions are being made:
  (1) The electronic state is orbitally nondegenerate
  (2) There are no thermally accessible electronically excited states
  (3) Hindered rotations indicated by low frequency modes are not
      treated as such but are treated as vibrations and this may
      cause some error
  (4) All equations used are the standard statistical mechanics
      equations for an ideal gas
  (5) All vibrations are strictly harmonic

freq.      54.60  E(vib)   ...       0.52
freq.      91.17  E(vib)   ...       0.47
freq.     125.63  E(vib)   ...       0.43
freq.     143.09  E(vib)   ...       0.41
freq.     163.56  E(vib)   ...       0.39
freq.     185.35  E(vib)   ...       0.37
freq.     209.28  E(vib)   ...       0.34
freq.     232.18  E(vib)   ...       0.32
freq.     250.58  E(vib)   ...       0.30
freq.     272.93  E(vib)   ...       0.29
freq.     281.53  E(vib)   ...       0.28
freq.     298.68  E(vib)   ...       0.26
freq.     322.99  E(vib)   ...       0.25
freq.     330.19  E(vib)   ...       0.24
freq.     371.47  E(vib)   ...       0.21
freq.     414.93  E(vib)   ...       0.19
freq.     440.41  E(vib)   ...       0.17
freq.     501.40  E(vib)   ...       0.14
freq.     507.49  E(vib)   ...       0.14
freq.     552.01  E(vib)   ...       0.12
freq.     569.57  E(vib)   ...       0.11
freq.     628.37  E(vib)   ...       0.09
freq.     634.04  E(vib)   ...       0.09
freq.     650.58  E(vib)   ...       0.08
freq.     686.04  E(vib)   ...       0.07
freq.     715.85  E(vib)   ...       0.07
freq.     753.59  E(vib)   ...       0.06
freq.     776.09  E(vib)   ...       0.05
freq.     787.73  E(vib)   ...       0.05
freq.     807.92  E(vib)   ...       0.05
freq.     843.85  E(vib)   ...       0.04
freq.     892.21  E(vib)   ...       0.03
freq.     903.70  E(vib)   ...       0.03
freq.     960.88  E(vib)   ...       0.03
freq.     986.51  E(vib)   ...       0.02
freq.     996.86  E(vib)   ...       0.02
freq.    1007.31  E(vib)   ...       0.02
freq.    1009.24  E(vib)   ...       0.02
freq.    1031.09  E(vib)   ...       0.02
freq.    1033.14  E(vib)   ...       0.02
freq.    1066.18  E(vib)   ...       0.02
freq.    1079.75  E(vib)   ...       0.02
freq.    1086.03  E(vib)   ...       0.02
freq.    1092.22  E(vib)   ...       0.02
freq.    1111.51  E(vib)   ...       0.01
freq.    1147.59  E(vib)   ...       0.01
freq.    1175.53  E(vib)   ...       0.01
freq.    1186.76  E(vib)   ...       0.01
freq.    1193.73  E(vib)   ...       0.01
freq.    1219.78  E(vib)   ...       0.01
freq.    1232.96  E(vib)   ...       0.01
freq.    1251.02  E(vib)   ...       0.01
freq.    1266.54  E(vib)   ...       0.01
freq.    1296.54  E(vib)   ...       0.01
freq.    1319.47  E(vib)   ...       0.01
freq.    1332.90  E(vib)   ...       0.01
freq.    1347.12  E(vib)   ...       0.01
freq.    1362.50  E(vib)   ...       0.01
freq.    1392.16  E(vib)   ...       0.00
freq.    1421.64  E(vib)   ...       0.00
freq.    1425.95  E(vib)   ...       0.00
freq.    1433.15  E(vib)   ...       0.00
freq.    1450.96  E(vib)   ...       0.00
freq.    1453.75  E(vib)   ...       0.00
freq.    1461.99  E(vib)   ...       0.00
freq.    1503.84  E(vib)   ...       0.00
freq.    1508.00  E(vib)   ...       0.00
freq.    1512.28  E(vib)   ...       0.00
freq.    1515.15  E(vib)   ...       0.00
freq.    1518.37  E(vib)   ...       0.00
freq.    1518.76  E(vib)   ...       0.00
freq.    1526.52  E(vib)   ...       0.00
freq.    1530.57  E(vib)   ...       0.00
freq.    1545.00  E(vib)   ...       0.00
freq.    1671.59  E(vib)   ...       0.00
freq.    1723.65  E(vib)   ...       0.00
freq.    1764.00  E(vib)   ...       0.00
freq.    1775.15  E(vib)   ...       0.00
freq.    3092.16  E(vib)   ...       0.00
freq.    3092.41  E(vib)   ...       0.00
freq.    3095.05  E(vib)   ...       0.00
freq.    3098.15  E(vib)   ...       0.00
freq.    3104.72  E(vib)   ...       0.00
freq.    3105.51  E(vib)   ...       0.00
freq.    3146.77  E(vib)   ...       0.00
freq.    3153.96  E(vib)   ...       0.00
freq.    3168.67  E(vib)   ...       0.00
freq.    3182.21  E(vib)   ...       0.00
freq.    3186.21  E(vib)   ...       0.00
freq.    3205.23  E(vib)   ...       0.00
freq.    3207.40  E(vib)   ...       0.00
freq.    3213.23  E(vib)   ...       0.00
freq.    3230.49  E(vib)   ...       0.00
freq.    3240.05  E(vib)   ...       0.00
freq.    3259.07  E(vib)   ...       0.00
freq.    3341.51  E(vib)   ...       0.00

------------
INNER ENERGY
------------

The inner energy is: U= E(el) + E(ZPE) + E(vib) + E(rot) + E(trans)
    E(el)   - is the total energy from the electronic structure calculation
              = E(kin-el) + E(nuc-el) + E(el-el) + E(nuc-nuc)
    E(ZPE)  - the the zero temperature vibrational energy from the frequency calculation
    E(vib)  - the the finite temperature correction to E(ZPE) due to population
              of excited vibrational states
    E(rot)  - is the rotational thermal energy
    E(trans)- is the translational thermal energy

Summary of contributions to the inner energy U:
Electronic energy                ...   -112.33035856 Eh
Zero point energy                ...      0.30064398 Eh     188.66 kcal/mol
Thermal vibrational correction   ...      0.01129605 Eh       7.09 kcal/mol
Thermal rotational correction    ...      0.00141627 Eh       0.89 kcal/mol
Thermal translational correction ...      0.00141627 Eh       0.89 kcal/mol
-----------------------------------------------------------------------
Total thermal energy                   -112.01558598 Eh

Summary of corrections to the electronic energy:
(perhaps to be used in another calculation)
Total thermal correction                  0.01412860 Eh       8.87 kcal/mol
Non-thermal (ZPE) correction              0.30064398 Eh     188.66 kcal/mol
-----------------------------------------------------------------------
Total correction                          0.31477258 Eh     197.52 kcal/mol

--------
ENTHALPY
--------

The enthalpy is H = U + kB*T
                kB is Boltzmann's constant
Total thermal energy              ...   -112.01558598 Eh
Thermal Enthalpy correction       ...      0.00094421 Eh       0.59 kcal/mol
-----------------------------------------------------------------------
Total Enthalpy                    ...   -112.01464178 Eh

Note: Only C1 symmetry has been detected, increase convergence thresholds
      if your molecule has a higher symmetry. Symmetry factor of 1.0 is

Rotational constants in cm-1:     0.031685     0.013770     0.011447

                             ****ORCA TERMINATED NORMALLY****
TOTAL RUN TIME: 0 days 0 hours 31 minutes 39 seconds 484 msec
