                         Program Version 6.0.1  -  RELEASE   -
|  1> ! wB97X-3c OPT FREQ TightSCF
|  2> %pal
|  3>   nprocs 40
|  4> end
|  5> * xyz 0 1
|  6> C     -4.695464    -0.620879     1.259854
|  7> C     -3.549088    -0.585523     0.307518
|  8> O     -3.028772    -1.665896    -0.083080
|  9> O     -3.094026     0.645498    -0.178503
| 10> C     -2.005374     0.770985    -1.091351
| 11> C     -0.703443     0.470103    -0.408833
| 12> C      0.448474     0.516615    -1.088230
| 13> C      1.776625     0.243627    -0.486004
| 14> C      1.933221    -0.493380     0.706613
| 15> C      3.209276    -0.732505     1.226923
| 16> C      4.339639    -0.249925     0.564241
| 17> C      4.197552     0.467720    -0.624897
| 18> C      2.924668     0.709376    -1.150461
| 19> H     -4.547511    -1.431223     2.004551
| 20> H     -5.635888    -0.804144     0.699909
| 21> H     -4.773191     0.348226     1.795792
| 22> H     -1.981758     1.813982    -1.471888
| 23> H     -2.155022     0.086630    -1.955060
| 24> H     -0.719065     0.242329     0.648185
| 25> H      0.418335     0.808019    -2.132624
| 26> H      1.082987    -0.907577     1.229787
| 27> H      3.321920    -1.299397     2.142142
| 28> H      5.325830    -0.437601     0.968839
| 29> H      5.074477     0.836590    -1.141136
| 30> H      2.835597     1.268351    -2.074192
| 31> *
| 32>
| 33>                          ****END OF INPUT****
 Total Charge           Charge          ....    0
 Multiplicity           Mult            ....    1
 Number of Electrons    NEL             ....   68
Dispersion correction           -0.029592881
FINAL SINGLE POINT ENERGY      -101.970780666169
Dispersion correction             ... done (  0.1 sec)
Dispersion correction           -0.030108963
FINAL SINGLE POINT ENERGY      -101.988893055805
Dispersion correction             ... done (  0.1 sec)
Dispersion correction           -0.030177396
FINAL SINGLE POINT ENERGY      -101.990483024399
Dispersion correction             ... done (  0.1 sec)
FINAL SINGLE POINT ENERGY      -101.990444274574
FINAL SINGLE POINT ENERGY      -101.990851595007
FINAL SINGLE POINT ENERGY      -101.990909587632
FINAL SINGLE POINT ENERGY      -101.991126100083
FINAL SINGLE POINT ENERGY      -101.991515392409
FINAL SINGLE POINT ENERGY      -101.991820761077
FINAL SINGLE POINT ENERGY      -101.989940639672
FINAL SINGLE POINT ENERGY      -101.995094931527
FINAL SINGLE POINT ENERGY      -101.995102257877
FINAL SINGLE POINT ENERGY      -101.995108468908
FINAL SINGLE POINT ENERGY      -101.995113891107
FINAL SINGLE POINT ENERGY      -101.995120798760
FINAL SINGLE POINT ENERGY      -101.995128569291
FINAL SINGLE POINT ENERGY      -101.995136853148
Dispersion correction             ... done (  0.1 sec)
Dispersion correction           -0.030062724
FINAL SINGLE POINT ENERGY      -101.995141213385
Dispersion correction             ... done (  0.1 sec)
Dispersion correction           -0.030065085
FINAL SINGLE POINT ENERGY      -101.995142514879
Dispersion correction             ... done (  0.1 sec)
                    ***********************HURRAY********************

CARTESIAN COORDINATES (ANGSTROEM)
---------------------------------
  C     -4.542666    0.215441    1.345332
  C     -3.546616   -0.451474    0.453185
  O     -3.270221   -1.620556    0.474688
  O     -2.986678    0.420162   -0.391002
  C     -2.013376   -0.099612   -1.307866
  C     -0.690894   -0.303022   -0.658317
  C      0.398479    0.355142   -1.030445
  C      1.745161    0.190878   -0.468805
  C      2.122547   -0.939678    0.249566
  C      3.392825   -1.045388    0.780805
  C      4.314753   -0.027207    0.598318
  C      3.956602    1.095113   -0.126310
  C      2.683889    1.198393   -0.657741
  H     -4.967910   -0.516488    2.022283
  H     -5.326150    0.670016    0.743641
  H     -4.055896    1.009610    1.906332
  H     -1.950966    0.642060   -2.099095
  H     -2.391980   -1.035257   -1.716583
  H     -0.661042   -1.033563    0.140146
  H      0.309168    1.102759   -1.812484
  H      1.422821   -1.752873    0.380014
  H      3.669525   -1.932449    1.333782
  H      5.309799   -0.113974    1.012059
  H      4.670236    1.892631   -0.280504
  H      2.408589    2.079339   -1.222907

 Multiplicity           Mult            ....    1
 Number of Electrons    NEL             ....   68
 Basis Dimension        Dim             ....  229

ORBITAL ENERGIES
----------------

  NO   OCC          E(Eh)            E(eV)
   0   2.0000      -1.243434       -33.8356
   1   2.0000      -1.145245       -31.1637
   2   2.0000      -1.015343       -27.6289
   3   2.0000      -0.958329       -26.0775
   4   2.0000      -0.916336       -24.9348
   5   2.0000      -0.893785       -24.3211
   6   2.0000      -0.883240       -24.0342
   7   2.0000      -0.827724       -22.5235
   8   2.0000      -0.757522       -20.6132
   9   2.0000      -0.739824       -20.1316
  10   2.0000      -0.704934       -19.1822
  11   2.0000      -0.676589       -18.4109
  12   2.0000      -0.653121       -17.7723
  13   2.0000      -0.625008       -17.0073
  14   2.0000      -0.614313       -16.7163
  15   2.0000      -0.602657       -16.3991
  16   2.0000      -0.584327       -15.9003
  17   2.0000      -0.577290       -15.7089
  18   2.0000      -0.560768       -15.2593
  19   2.0000      -0.544554       -14.8181
  20   2.0000      -0.538134       -14.6434
  21   2.0000      -0.531877       -14.4731
  22   2.0000      -0.513970       -13.9858
  23   2.0000      -0.505617       -13.7585
  24   2.0000      -0.494154       -13.4466
  25   2.0000      -0.486575       -13.2404
  26   2.0000      -0.473311       -12.8795
  27   2.0000      -0.458538       -12.4775
  28   2.0000      -0.451346       -12.2818
  29   2.0000      -0.419168       -11.4061
  30   2.0000      -0.409328       -11.1384
  31   2.0000      -0.391487       -10.6529
  32   2.0000      -0.356132        -9.6909
  33   2.0000      -0.326002        -8.8710
  34   0.0000       0.030564         0.8317
  35   0.0000       0.064453         1.7538
  36   0.0000       0.084747         2.3061
  37   0.0000       0.089417         2.4332
  38   0.0000       0.092984         2.5302

MULLIKEN ATOMIC CHARGES
-----------------------
   0 C :   -0.062115
   1 C :    0.245373
   2 O :   -0.331020
   3 O :   -0.277768
   4 C :    0.093325
   5 C :    0.007729
   6 C :   -0.001846
   7 C :   -0.084346
   8 C :   -0.001804
   9 C :   -0.006819
  10 C :   -0.010545
  11 C :   -0.003564
  12 C :   -0.001312
  13 H :    0.056493
  14 H :    0.056767
  15 H :    0.057614
  16 H :    0.043934
  17 H :    0.064290
  18 H :    0.046330
  19 H :    0.016891
  20 H :    0.020202
  21 H :    0.018124
  22 H :    0.018924
  23 H :    0.017654
  24 H :    0.017490
Sum of atomic charges:    0.0000000

LOEWDIN ATOMIC CHARGES
----------------------
   0 C :   -0.082579
   1 C :   -0.056338
   2 O :   -0.145408
   3 O :   -0.014783
   4 C :   -0.028343
   5 C :   -0.031555
   6 C :   -0.032232
   7 C :   -0.048423
   8 C :   -0.026352
   9 C :   -0.042511
  10 C :   -0.044470
  11 C :   -0.044568
  12 C :   -0.033100
  13 H :    0.061864
  14 H :    0.062145
  15 H :    0.062566
  16 H :    0.059249
  17 H :    0.055540
  18 H :    0.044425
  19 H :    0.047919
  20 H :    0.047790
  21 H :    0.048146
  22 H :    0.046671
  23 H :    0.047542
  24 H :    0.046806

  Mayer bond orders larger than 0.100000
B(  0-C ,  1-C ) :   1.0405 B(  0-C , 13-H ) :   0.9877 B(  0-C , 14-H ) :   0.9720
B(  0-C , 15-H ) :   0.9736 B(  1-C ,  2-O ) :   1.9249 B(  1-C ,  3-O ) :   1.1469
B(  3-O ,  4-C ) :   0.8794 B(  4-C ,  5-C ) :   1.0201 B(  4-C , 16-H ) :   1.0112
B(  4-C , 17-H ) :   0.9891 B(  5-C ,  6-C ) :   1.8269 B(  5-C , 18-H ) :   0.9926
B(  6-C ,  7-C ) :   1.1258 B(  6-C , 19-H ) :   0.9903 B(  7-C ,  8-C ) :   1.4278
B(  7-C , 12-C ) :   1.4213 B(  8-C ,  9-C ) :   1.4669 B(  8-C , 20-H ) :   0.9848
B(  9-C , 10-C ) :   1.4350 B(  9-C , 21-H ) :   0.9906 B( 10-C , 11-C ) :   1.4495
B( 10-C , 22-H ) :   0.9930 B( 11-C , 12-C ) :   1.4514 B( 11-C , 23-H ) :   0.9902
B( 12-C , 24-H ) :   0.9886

Dispersion correction           -0.030065676
FINAL SINGLE POINT ENERGY      -101.995142677509

DIPOLE MOMENT
-------------

Method             : SCF
Type of density    : Electron Density
Multiplicity       :   1
Irrep              :   0
Energy             :  -101.9650770016056214 Eh
Relativity type    :
Basis              : AO
                                X                 Y                 Z
Electronic contribution:      9.238708576      -0.620308259      -1.565550854
Nuclear contribution   :     -9.133564729       1.336472812       1.428725016
                        -----------------------------------------
Total Dipole Moment    :      0.105143847       0.716164553      -0.136825838
                        -----------------------------------------
Magnitude (a.u.)       :      0.736660169
Magnitude (Debye)      :      1.872441345

VIBRATIONAL FREQUENCIES
-----------------------

Scaling factor for frequencies =  1.000000000  (already applied!)

     0:       0.00 cm**-1
     1:       0.00 cm**-1
     2:       0.00 cm**-1
     3:       0.00 cm**-1
     4:       0.00 cm**-1
     5:       0.00 cm**-1
     6:      26.16 cm**-1
     7:      45.04 cm**-1
     8:      52.16 cm**-1
     9:      70.18 cm**-1
    10:      85.43 cm**-1
    11:     132.76 cm**-1
    12:     156.69 cm**-1
    13:     246.75 cm**-1
    14:     274.85 cm**-1
    15:     319.50 cm**-1
    16:     403.34 cm**-1
    17:     419.21 cm**-1
    18:     437.37 cm**-1
    19:     482.87 cm**-1
    20:     556.20 cm**-1
    21:     626.04 cm**-1
    22:     637.98 cm**-1
    23:     644.80 cm**-1
    24:     682.01 cm**-1
    25:     720.51 cm**-1
    26:     782.89 cm**-1
    27:     841.98 cm**-1
    28:     872.55 cm**-1
    29:     883.22 cm**-1
    30:     901.48 cm**-1
    31:     956.81 cm**-1
    32:    1009.88 cm**-1
    33:    1014.07 cm**-1
    34:    1023.21 cm**-1
    35:    1033.04 cm**-1
    36:    1038.15 cm**-1
    37:    1042.02 cm**-1
    38:    1082.34 cm**-1
    39:    1096.66 cm**-1
    40:    1099.58 cm**-1
    41:    1130.14 cm**-1
    42:    1164.43 cm**-1
    43:    1195.39 cm**-1
    44:    1227.86 cm**-1
    45:    1261.48 cm**-1
    46:    1301.37 cm**-1
    47:    1330.04 cm**-1
    48:    1341.69 cm**-1
    49:    1353.54 cm**-1
    50:    1376.83 cm**-1
    51:    1391.53 cm**-1
    52:    1431.40 cm**-1
    53:    1458.71 cm**-1
    54:    1502.49 cm**-1
    55:    1508.81 cm**-1
    56:    1514.46 cm**-1
    57:    1522.97 cm**-1
    58:    1574.05 cm**-1
    59:    1692.81 cm**-1
    60:    1719.92 cm**-1
    61:    1792.39 cm**-1
    62:    1873.93 cm**-1
    63:    3137.29 cm**-1
    64:    3143.18 cm**-1
    65:    3211.61 cm**-1
    66:    3217.95 cm**-1
    67:    3232.01 cm**-1
    68:    3243.69 cm**-1
    69:    3250.96 cm**-1
    70:    3255.54 cm**-1
    71:    3261.80 cm**-1
    72:    3266.09 cm**-1
    73:    3270.71 cm**-1
    74:    3278.02 cm**-1

IR SPECTRUM
-----------

 Mode   freq       eps      Int      T**2         TX        TY        TZ
       cm**-1   L/(mol*cm) km/mol    a.u.
----------------------------------------------------------------------------
  6:     26.16   0.000046    0.23  0.000544  (-0.002520 -0.000105  0.023194)
  7:     45.04   0.000371    1.87  0.002568  (-0.029110 -0.013924 -0.039071)
  8:     52.16   0.000449    2.27  0.002683  ( 0.048130  0.011262  0.015492)
  9:     70.18   0.000276    1.39  0.001227  (-0.023284 -0.013897 -0.022182)
 10:     85.43   0.000156    0.79  0.000569  ( 0.022245 -0.003137 -0.008006)
 11:    132.76   0.000302    1.53  0.000711  (-0.026341 -0.000443  0.004112)
 12:    156.69   0.000198    1.00  0.000394  (-0.002348  0.007116 -0.018383)
 13:    246.75   0.000852    4.31  0.001078  ( 0.029978  0.012785  0.003997)
 14:    274.85   0.000447    2.26  0.000508  (-0.005743  0.008059 -0.020238)
 15:    319.50   0.001550    7.83  0.001514  (-0.013056 -0.029960  0.021119)
 16:    403.34   0.000690    3.49  0.000534  (-0.019037 -0.008580 -0.009897)
 17:    419.21   0.000074    0.37  0.000055  ( 0.006889  0.001581  0.002237)
 18:    437.37   0.001928    9.75  0.001376  (-0.036646  0.000850  0.005674)
 19:    482.87   0.002459   12.43  0.001589  (-0.013415  0.010619  0.036004)
 20:    556.20   0.000169    0.85  0.000095  ( 0.002854 -0.006811 -0.006329)
 21:    626.04   0.001865    9.42  0.000930  ( 0.022802  0.004541  0.019725)
 22:    637.98   0.000125    0.63  0.000061  ( 0.006524  0.003410  0.002606)
 23:    644.80   0.000003    0.01  0.000001  ( 0.001028  0.000355  0.000309)
 24:    682.01   0.002948   14.90  0.001349  (-0.032963  0.009972  0.012765)
 25:    720.51   0.009023   45.60  0.003908  (-0.021985  0.026595  0.052129)
 26:    782.89   0.007308   36.93  0.002913  ( 0.012921 -0.024601 -0.046269)
 27:    841.98   0.000618    3.12  0.000229  ( 0.000129 -0.014263  0.005070)
 28:    872.55   0.000403    2.04  0.000144  ( 0.009878 -0.006282 -0.002673)
 29:    883.22   0.001335    6.74  0.000472  (-0.016683  0.012776  0.005477)
 30:    901.48   0.001674    8.46  0.000579  (-0.000564  0.023336 -0.005867)
 31:    956.81   0.000372    1.88  0.000121  ( 0.007301 -0.001517 -0.008108)
 32:   1009.88   0.000138    0.70  0.000043  (-0.003664 -0.003834 -0.003811)
 33:   1014.07   0.000007    0.04  0.000002  (-0.000604  0.000104 -0.001337)
 34:   1023.21   0.009507   48.05  0.002900  ( 0.026203 -0.030783 -0.035572)
 35:   1033.04   0.001379    6.97  0.000417  (-0.009205  0.012181  0.013546)
 36:   1038.15   0.001294    6.54  0.000389  ( 0.008476 -0.010948 -0.014045)
 37:   1042.02   0.001664    8.41  0.000498  (-0.013672  0.010115  0.014456)
 38:   1082.34   0.000644    3.25  0.000186  ( 0.008458  0.000612  0.010662)
 39:   1096.66   0.004700   23.75  0.001338  ( 0.009252 -0.002704 -0.035279)
 40:   1099.58   0.022137  111.87  0.006283  ( 0.069179  0.010341 -0.037282)
 41:   1130.14   0.001743    8.81  0.000481  ( 0.013025 -0.017256  0.003708)
 42:   1164.43   0.004000   20.21  0.001072  (-0.032352  0.003867 -0.003210)
 43:   1195.39   0.000145    0.73  0.000038  ( 0.005687  0.000080  0.002323)
 44:   1227.86   0.000104    0.53  0.000026  ( 0.004574  0.001164 -0.002047)
 45:   1261.48   0.000043    0.22  0.000011  ( 0.002066  0.002535 -0.000095)
 46:   1301.37   0.020788  105.06  0.004985  ( 0.054709  0.019644 -0.040074)
 47:   1330.04   0.054283  274.33  0.012736  ( 0.085577  0.038735 -0.062550)
 48:   1341.69   0.003066   15.49  0.000713  ( 0.024909  0.009548 -0.001229)
 49:   1353.54   0.021425  108.27  0.004940  (-0.059456 -0.020938  0.031083)
 50:   1376.83   0.002047   10.34  0.000464  (-0.021287 -0.000020 -0.003281)
 51:   1391.53   0.000779    3.94  0.000175  ( 0.012775  0.002873  0.001797)
 52:   1431.40   0.013378   67.61  0.002917  ( 0.048866  0.004847 -0.022476)
 53:   1458.71   0.014835   74.97  0.003174  (-0.035350 -0.003867  0.043694)
 54:   1502.49   0.004010   20.26  0.000833  (-0.010177  0.026959 -0.001586)
 55:   1508.81   0.002426   12.26  0.000502  ( 0.015532  0.004758  0.015424)
 56:   1514.46   0.006764   34.18  0.001394  (-0.018740  0.000667  0.032283)
 57:   1522.97   0.001238    6.26  0.000254  (-0.010144  0.012053  0.002340)
 58:   1574.05   0.002076   10.49  0.000412  ( 0.019486  0.000126  0.005647)
 59:   1692.81   0.000392    1.98  0.000072  (-0.006494 -0.005259  0.001556)
 60:   1719.92   0.000803    4.06  0.000146  ( 0.011950  0.001187  0.001229)
 61:   1792.39   0.001723    8.71  0.000300  ( 0.017297  0.000826 -0.000173)
 62:   1873.93   0.056975  287.93  0.009488  (-0.004815  0.096690 -0.010763)
 63:   3137.29   0.000332    1.68  0.000033  (-0.004431  0.002759  0.002403)
 64:   3143.18   0.003763   19.02  0.000374  (-0.002251 -0.000708 -0.019184)
 65:   3211.61   0.001920    9.70  0.000187  (-0.007149  0.005809 -0.010086)
 66:   3217.95   0.001178    5.95  0.000114  ( 0.000797 -0.007054  0.007988)
 67:   3232.01   0.000037    0.19  0.000004  ( 0.001430  0.000293  0.001220)
 68:   3243.69   0.000876    4.43  0.000084  (-0.006433  0.004429 -0.004826)
 69:   3250.96   0.000073    0.37  0.000007  (-0.002092 -0.000964 -0.001302)
 70:   3255.54   0.000763    3.86  0.000073  (-0.005802  0.002026 -0.005949)
 71:   3261.80   0.001211    6.12  0.000116  ( 0.001979 -0.008831  0.005825)
 72:   3266.09   0.000243    1.23  0.000023  ( 0.003761  0.000026 -0.003016)
 73:   3270.71   0.002432   12.29  0.000232  (-0.008417 -0.012387  0.002789)
 74:   3278.02   0.001503    7.59  0.000143  ( 0.010686 -0.003185  0.004328)

--------------------------
THERMOCHEMISTRY AT 298.15K
--------------------------

Temperature         ...   298.15 K
Pressure            ...     1.00 atm
Total Mass          ...   176.22 AMU
Quasi RRHO          ...     True
Cut-Off Frequency   ...     1.00 cm^-1

Throughout the following assumptions are being made:
  (1) The electronic state is orbitally nondegenerate
  (2) There are no thermally accessible electronically excited states
  (3) Hindered rotations indicated by low frequency modes are not
      treated as such but are treated as vibrations and this may
      cause some error
  (4) All equations used are the standard statistical mechanics
      equations for an ideal gas
  (5) All vibrations are strictly harmonic

freq.      26.16  E(vib)   ...       0.56
freq.      45.04  E(vib)   ...       0.53
freq.      52.16  E(vib)   ...       0.52
freq.      70.18  E(vib)   ...       0.50
freq.      85.43  E(vib)   ...       0.48
freq.     132.76  E(vib)   ...       0.42
freq.     156.69  E(vib)   ...       0.40
freq.     246.75  E(vib)   ...       0.31
freq.     274.85  E(vib)   ...       0.28
freq.     319.50  E(vib)   ...       0.25
freq.     403.34  E(vib)   ...       0.19
freq.     419.21  E(vib)   ...       0.18
freq.     437.37  E(vib)   ...       0.17
freq.     482.87  E(vib)   ...       0.15
freq.     556.20  E(vib)   ...       0.12
freq.     626.04  E(vib)   ...       0.09
freq.     637.98  E(vib)   ...       0.09
freq.     644.80  E(vib)   ...       0.09
freq.     682.01  E(vib)   ...       0.08
freq.     720.51  E(vib)   ...       0.07
freq.     782.89  E(vib)   ...       0.05
freq.     841.98  E(vib)   ...       0.04
freq.     872.55  E(vib)   ...       0.04
freq.     883.22  E(vib)   ...       0.04
freq.     901.48  E(vib)   ...       0.03
freq.     956.81  E(vib)   ...       0.03
freq.    1009.88  E(vib)   ...       0.02
freq.    1014.07  E(vib)   ...       0.02
freq.    1023.21  E(vib)   ...       0.02
freq.    1033.04  E(vib)   ...       0.02
freq.    1038.15  E(vib)   ...       0.02
freq.    1042.02  E(vib)   ...       0.02
freq.    1082.34  E(vib)   ...       0.02
freq.    1096.66  E(vib)   ...       0.02
freq.    1099.58  E(vib)   ...       0.02
freq.    1130.14  E(vib)   ...       0.01
freq.    1164.43  E(vib)   ...       0.01
freq.    1195.39  E(vib)   ...       0.01
freq.    1227.86  E(vib)   ...       0.01
freq.    1261.48  E(vib)   ...       0.01
freq.    1301.37  E(vib)   ...       0.01
freq.    1330.04  E(vib)   ...       0.01
freq.    1341.69  E(vib)   ...       0.01
freq.    1353.54  E(vib)   ...       0.01
freq.    1376.83  E(vib)   ...       0.01
freq.    1391.53  E(vib)   ...       0.00
freq.    1431.40  E(vib)   ...       0.00
freq.    1458.71  E(vib)   ...       0.00
freq.    1502.49  E(vib)   ...       0.00
freq.    1508.81  E(vib)   ...       0.00
freq.    1514.46  E(vib)   ...       0.00
freq.    1522.97  E(vib)   ...       0.00
freq.    1574.05  E(vib)   ...       0.00
freq.    1692.81  E(vib)   ...       0.00
freq.    1719.92  E(vib)   ...       0.00
freq.    1792.39  E(vib)   ...       0.00
freq.    1873.93  E(vib)   ...       0.00
freq.    3137.29  E(vib)   ...       0.00
freq.    3143.18  E(vib)   ...       0.00
freq.    3211.61  E(vib)   ...       0.00
freq.    3217.95  E(vib)   ...       0.00
freq.    3232.01  E(vib)   ...       0.00
freq.    3243.69  E(vib)   ...       0.00
freq.    3250.96  E(vib)   ...       0.00
freq.    3255.54  E(vib)   ...       0.00
freq.    3261.80  E(vib)   ...       0.00
freq.    3266.09  E(vib)   ...       0.00
freq.    3270.71  E(vib)   ...       0.00
freq.    3278.02  E(vib)   ...       0.00

------------
INNER ENERGY
------------

The inner energy is: U= E(el) + E(ZPE) + E(vib) + E(rot) + E(trans)
    E(el)   - is the total energy from the electronic structure calculation
              = E(kin-el) + E(nuc-el) + E(el-el) + E(nuc-nuc)
    E(ZPE)  - the the zero temperature vibrational energy from the frequency calculation
    E(vib)  - the the finite temperature correction to E(ZPE) due to population
              of excited vibrational states
    E(rot)  - is the rotational thermal energy
    E(trans)- is the translational thermal energy

Summary of contributions to the inner energy U:
Electronic energy                ...   -101.99514268 Eh
Zero point energy                ...      0.20989410 Eh     131.71 kcal/mol
Thermal vibrational correction   ...      0.00953147 Eh       5.98 kcal/mol
Thermal rotational correction    ...      0.00141627 Eh       0.89 kcal/mol
Thermal translational correction ...      0.00141627 Eh       0.89 kcal/mol
-----------------------------------------------------------------------
Total thermal energy                   -101.77288457 Eh

Summary of corrections to the electronic energy:
(perhaps to be used in another calculation)
Total thermal correction                  0.01236401 Eh       7.76 kcal/mol
Non-thermal (ZPE) correction              0.20989410 Eh     131.71 kcal/mol
-----------------------------------------------------------------------
Total correction                          0.22225811 Eh     139.47 kcal/mol

--------
ENTHALPY
--------

The enthalpy is H = U + kB*T
                kB is Boltzmann's constant
Total thermal energy              ...   -101.77288457 Eh
Thermal Enthalpy correction       ...      0.00094421 Eh       0.59 kcal/mol
-----------------------------------------------------------------------
Total Enthalpy                    ...   -101.77194036 Eh

Note: Only C1 symmetry has been detected, increase convergence thresholds
      if your molecule has a higher symmetry. Symmetry factor of 1.0 is
      used for the rotational entropy correction.

Note: Rotational entropy computed according to Herzberg
Infrared and Raman Spectra, Chapter V,1, Van Nostrand Reinhold, 1945
Point Group:  C1, Symmetry Number:   1
Rotational constants in cm-1:     0.073567     0.009760     0.009287

Vibrational entropy computed according to the QRRHO of S. Grimme
Chem.Eur.J. 2012 18 9955 using a reference frequency of 100.0 cm-1

-------
ENTROPY
-------

The entropy contributions are T*S = T*(S(el)+S(vib)+S(rot)+S(trans))
     S(el)   - electronic entropy
     S(vib)  - vibrational entropy
     S(rot)  - rotational entropy
     S(trans)- translational entropy
The entropies will be listed as multiplied by the temperature to get
units of energy

Electronic entropy                ...      0.00000000 Eh      0.00 kcal/mol
Vibrational entropy               ...      0.01709885 Eh     10.73 kcal/mol
Rotational entropy                ...      0.01513722 Eh      9.50 kcal/mol

                             ****ORCA TERMINATED NORMALLY****
TOTAL RUN TIME: 0 days 0 hours 28 minutes 44 seconds 738 msec
