                         Program Version 6.0.1  -  RELEASE   -
|  1> ! wB97X-3c OPT FREQ TightSCF
|  2> %pal
|  3>   nprocs 40
|  4> end
|  5> * xyz 0 1
|  6> C      4.780973     0.247021     0.072083
|  7> C      3.338501     0.640352     0.071154
|  8> C      2.382823    -0.265932    -0.166337
|  9> C      0.930891     0.042256    -0.170579
| 10> C      0.019387    -1.013792    -0.013588
| 11> C     -1.369502    -0.777621    -0.018691
| 12> C     -1.850644     0.528110    -0.193427
| 13> C     -0.939503     1.585524    -0.366726
| 14> C      0.435585     1.344990    -0.359849
| 15> O     -3.239554     0.733511    -0.192539
| 16> C     -3.867773     2.000517    -0.358924
| 17> O     -2.302599    -1.813914     0.146190
| 18> C     -1.963777    -3.184343     0.332740
| 19> H      4.962023    -0.531185     0.843483
| 20> H      5.066530    -0.147857    -0.925829
| 21> H      5.411529     1.131573     0.301096
| 22> H      3.095107     1.670009     0.293542
| 23> H      2.680619    -1.296647    -0.326461
| 24> H      0.398604    -2.018331     0.121003
| 25> H     -1.284552     2.599659    -0.514904
| 26> H      1.099891     2.181167    -0.526678
| 27> H     -4.968114     1.868096    -0.313640
| 28> H     -3.602157     2.431613    -1.347252
| 29> H     -3.558922     2.689792     0.455158
| 30> H     -1.361795    -3.306483     1.257895
| 31> H     -1.397916    -3.560898    -0.545450
| 32> H     -2.895655    -3.777184     0.435044
| 33> *
| 34>
| 35>                          ****END OF INPUT****
 Total Charge           Charge          ....    0
 Multiplicity           Mult            ....    1
 Number of Electrons    NEL             ....   70
Dispersion correction           -0.031827085
FINAL SINGLE POINT ENERGY      -103.144056889118
Dispersion correction             ... done (  0.1 sec)
Dispersion correction           -0.032622632
FINAL SINGLE POINT ENERGY      -103.160349986212
Dispersion correction             ... done (  0.1 sec)
Dispersion correction           -0.032745126
FINAL SINGLE POINT ENERGY      -103.161621110997
Dispersion correction             ... done (  0.1 sec)
FINAL SINGLE POINT ENERGY      -103.161835131837
FINAL SINGLE POINT ENERGY      -103.161878034698
FINAL SINGLE POINT ENERGY      -103.161889318644
FINAL SINGLE POINT ENERGY      -103.161912435265
FINAL SINGLE POINT ENERGY      -103.162010474994
FINAL SINGLE POINT ENERGY      -103.162131761362
FINAL SINGLE POINT ENERGY      -103.162344815473
FINAL SINGLE POINT ENERGY      -103.163011276953
FINAL SINGLE POINT ENERGY      -103.163285461878
FINAL SINGLE POINT ENERGY      -103.163693828462
FINAL SINGLE POINT ENERGY      -103.164232904803
FINAL SINGLE POINT ENERGY      -103.164575061866
FINAL SINGLE POINT ENERGY      -103.164828993924
FINAL SINGLE POINT ENERGY      -103.164436873418
Dispersion correction             ... done (  0.1 sec)
Dispersion correction           -0.032699616
FINAL SINGLE POINT ENERGY      -103.164918841065
Dispersion correction             ... done (  0.1 sec)
Dispersion correction           -0.032693642
FINAL SINGLE POINT ENERGY      -103.164928792750
Dispersion correction             ... done (  0.1 sec)
                    ***********************HURRAY********************

CARTESIAN COORDINATES (ANGSTROEM)
---------------------------------
  C      4.739175    0.243535    0.078466
  C      3.288600    0.583377    0.081708
  C      2.314384   -0.272451   -0.198850
  C      0.877037    0.031026   -0.217413
  C     -0.034262   -1.006334    0.000206
  C     -1.393135   -0.781794    0.014111
  C     -1.882252    0.517982   -0.203185
  C     -0.985826    1.540034   -0.433833
  C      0.382279    1.298184   -0.445695
  O     -3.224064    0.659436   -0.178015
  C     -3.758697    1.938451   -0.389789
  O     -2.325229   -1.734775    0.224303
  C     -1.892880   -3.051307    0.439764
  H      4.902062   -0.802483   -0.175133
  H      5.280785    0.855897   -0.643598
  H      5.187574    0.432928    1.054351
  H      3.034115    1.605463    0.343738
  H      2.580902   -1.301722   -0.420100
  H      0.347682   -2.001329    0.171435
  H     -1.342277    2.540920   -0.620762
  H      1.057013    2.114607   -0.658129
  H     -4.836953    1.832441   -0.323456
  H     -3.496317    2.320273   -1.377909
  H     -3.419842    2.641904    0.372720
  H     -1.270649   -3.124134    1.333352
  H     -1.339609   -3.433436   -0.419780
  H     -2.789615   -3.646694    0.580007

 Multiplicity           Mult            ....    1
 Number of Electrons    NEL             ....   70
 Basis Dimension        Dim             ....  239

ORBITAL ENERGIES
----------------

  NO   OCC          E(Eh)            E(eV)
   0   2.0000      -1.207768       -32.8650
   1   2.0000      -1.185859       -32.2689
   2   2.0000      -1.001959       -27.2647
   3   2.0000      -0.941960       -25.6320
   4   2.0000      -0.901775       -24.5386
   5   2.0000      -0.889270       -24.1983
   6   2.0000      -0.845981       -23.0203
   7   2.0000      -0.836362       -22.7586
   8   2.0000      -0.797051       -21.6889
   9   2.0000      -0.733808       -19.9679
  10   2.0000      -0.724178       -19.7059
  11   2.0000      -0.677327       -18.4310
  12   2.0000      -0.659129       -17.9358
  13   2.0000      -0.625011       -17.0074
  14   2.0000      -0.619015       -16.8443
  15   2.0000      -0.599460       -16.3121
  16   2.0000      -0.585373       -15.9288
  17   2.0000      -0.582912       -15.8618
  18   2.0000      -0.568191       -15.4613
  19   2.0000      -0.549324       -14.9479
  20   2.0000      -0.541228       -14.7276
  21   2.0000      -0.527872       -14.3641
  22   2.0000      -0.517121       -14.0716
  23   2.0000      -0.513435       -13.9713
  24   2.0000      -0.503229       -13.6935
  25   2.0000      -0.479780       -13.0555
  26   2.0000      -0.473088       -12.8734
  27   2.0000      -0.457678       -12.4540
  28   2.0000      -0.442274       -12.0349
  29   2.0000      -0.435464       -11.8496
  30   2.0000      -0.434378       -11.8200
  31   2.0000      -0.430518       -11.7150
  32   2.0000      -0.370568       -10.0837
  33   2.0000      -0.329174        -8.9573
  34   2.0000      -0.285364        -7.7651
  35   0.0000       0.056255         1.5308
  36   0.0000       0.080807         2.1989
  37   0.0000       0.088494         2.4081
  38   0.0000       0.091983         2.5030
  39   0.0000       0.096955         2.6383

MULLIKEN ATOMIC CHARGES
-----------------------
   0 C :   -0.064721
   1 C :   -0.036010
   2 C :   -0.019971
   3 C :   -0.085786
   4 C :   -0.027748
   5 C :    0.112894
   6 C :    0.104540
   7 C :   -0.043476
   8 C :   -0.002075
   9 O :   -0.273680
  10 C :    0.090062
  11 O :   -0.274035
  12 C :    0.090419
  13 H :    0.026977
  14 H :    0.043627
  15 H :    0.041807
  16 H :    0.022539
  17 H :    0.017372
  18 H :    0.002479
  19 H :    0.009973
  20 H :    0.012764
  21 H :    0.050166
  22 H :    0.037332
  23 H :    0.037509
  24 H :    0.038650
  25 H :    0.038323
  26 H :    0.050067
Sum of atomic charges:    0.0000000

LOEWDIN ATOMIC CHARGES
----------------------
   0 C :   -0.116417
   1 C :   -0.045002
   2 C :   -0.052851
   3 C :   -0.059914
   4 C :   -0.047744
   5 C :   -0.029495
   6 C :   -0.031669
   7 C :   -0.058710
   8 C :   -0.047100
   9 O :   -0.019522
  10 C :   -0.061327
  11 O :   -0.019074
  12 C :   -0.061140
  13 H :    0.048622
  14 H :    0.049759
  15 H :    0.049499
  16 H :    0.039074
  17 H :    0.042973
  18 H :    0.039932
  19 H :    0.041067
  20 H :    0.042896
  21 H :    0.058283
  22 H :    0.044736
  23 H :    0.044832
  24 H :    0.045140
  25 H :    0.044836
  26 H :    0.058317

  Mayer bond orders larger than 0.100000
B(  0-C ,  1-C ) :   1.0351 B(  0-C , 13-H ) :   0.9920 B(  0-C , 14-H ) :   0.9780
B(  0-C , 15-H ) :   0.9790 B(  1-C ,  2-C ) :   1.8383 B(  1-C , 16-H ) :   0.9940
B(  2-C ,  3-C ) :   1.1187 B(  2-C , 17-H ) :   0.9900 B(  3-C ,  4-C ) :   1.3787
B(  3-C ,  8-C ) :   1.4760 B(  4-C ,  5-C ) :   1.4856 B(  4-C , 18-H ) :   0.9757
B(  5-C ,  6-C ) :   1.3555 B(  5-C , 11-O ) :   1.0937 B(  6-C ,  7-C ) :   1.4824
B(  6-C ,  9-O ) :   1.0949 B(  7-C ,  8-C ) :   1.4069 B(  7-C , 19-H ) :   0.9765
B(  8-C , 20-H ) :   0.9811 B(  9-O , 10-C ) :   0.9483 B( 10-C , 21-H ) :   1.0045
B( 10-C , 22-H ) :   0.9889 B( 10-C , 23-H ) :   0.9887 B( 11-O , 12-C ) :   0.9485
B( 12-C , 24-H ) :   0.9886 B( 12-C , 25-H ) :   0.9886 B( 12-C , 26-H ) :   1.0047

Dispersion correction           -0.032693676
FINAL SINGLE POINT ENERGY      -103.164929718695

DIPOLE MOMENT
-------------

Method             : SCF
Type of density    : Electron Density
Multiplicity       :   1
Irrep              :   0
Energy             :  -103.1322360422192617 Eh
Relativity type    :
Basis              : AO
                                X                 Y                 Z
Electronic contribution:     -4.939059717       0.884342192      -0.806549834
Nuclear contribution   :      5.177678056      -0.794871110       0.808634058
                        -----------------------------------------
Total Dipole Moment    :      0.238618340       0.089471082       0.002084224
                        -----------------------------------------
Magnitude (a.u.)       :      0.254849231
Magnitude (Debye)      :      0.647775266

VIBRATIONAL FREQUENCIES
-----------------------

Scaling factor for frequencies =  1.000000000  (already applied!)

     0:       0.00 cm**-1
     1:       0.00 cm**-1
     2:       0.00 cm**-1
     3:       0.00 cm**-1
     4:       0.00 cm**-1
     5:       0.00 cm**-1
     6:      49.98 cm**-1
     7:      75.23 cm**-1
     8:      82.92 cm**-1
     9:     107.24 cm**-1
    10:     122.28 cm**-1
    11:     177.59 cm**-1
    12:     194.84 cm**-1
    13:     199.14 cm**-1
    14:     238.95 cm**-1
    15:     266.42 cm**-1
    16:     270.54 cm**-1
    17:     303.15 cm**-1
    18:     324.59 cm**-1
    19:     393.77 cm**-1
    20:     409.49 cm**-1
    21:     413.22 cm**-1
    22:     481.65 cm**-1
    23:     517.75 cm**-1
    24:     615.26 cm**-1
    25:     625.83 cm**-1
    26:     646.66 cm**-1
    27:     761.79 cm**-1
    28:     790.76 cm**-1
    29:     804.35 cm**-1
    30:     822.88 cm**-1
    31:     850.48 cm**-1
    32:     899.59 cm**-1
    33:     947.98 cm**-1
    34:     964.12 cm**-1
    35:    1009.34 cm**-1
    36:    1017.53 cm**-1
    37:    1091.93 cm**-1
    38:    1103.48 cm**-1
    39:    1134.10 cm**-1
    40:    1151.49 cm**-1
    41:    1195.00 cm**-1
    42:    1205.19 cm**-1
    43:    1205.25 cm**-1
    44:    1225.98 cm**-1
    45:    1235.50 cm**-1
    46:    1247.84 cm**-1
    47:    1314.60 cm**-1
    48:    1322.07 cm**-1
    49:    1342.02 cm**-1
    50:    1357.66 cm**-1
    51:    1366.30 cm**-1
    52:    1404.09 cm**-1
    53:    1446.36 cm**-1
    54:    1485.13 cm**-1
    55:    1508.46 cm**-1
    56:    1509.83 cm**-1
    57:    1516.68 cm**-1
    58:    1526.72 cm**-1
    59:    1528.72 cm**-1
    60:    1529.22 cm**-1
    61:    1537.01 cm**-1
    62:    1537.94 cm**-1
    63:    1613.15 cm**-1
    64:    1696.36 cm**-1
    65:    1721.22 cm**-1
    66:    1792.86 cm**-1
    67:    3085.02 cm**-1
    68:    3086.03 cm**-1
    69:    3099.73 cm**-1
    70:    3170.35 cm**-1
    71:    3170.78 cm**-1
    72:    3177.77 cm**-1
    73:    3201.36 cm**-1
    74:    3205.19 cm**-1
    75:    3220.62 cm**-1
    76:    3226.96 cm**-1
    77:    3227.28 cm**-1
    78:    3265.91 cm**-1
    79:    3277.34 cm**-1
    80:    3289.90 cm**-1

IR SPECTRUM
-----------

 Mode   freq       eps      Int      T**2         TX        TY        TZ
       cm**-1   L/(mol*cm) km/mol    a.u.
----------------------------------------------------------------------------
  6:     49.98   0.000265    1.34  0.001657  ( 0.005903  0.001422  0.040246)
  7:     75.23   0.000786    3.97  0.003259  (-0.000417  0.014020  0.055337)
  8:     82.92   0.001099    5.55  0.004135  (-0.001053 -0.010538 -0.063428)
  9:    107.24   0.000028    0.14  0.000082  (-0.006254 -0.006360  0.001517)
 10:    122.28   0.000002    0.01  0.000006  (-0.000708 -0.001484  0.001889)
 11:    177.59   0.000089    0.45  0.000157  ( 0.003459  0.000543  0.012022)
 12:    194.84   0.000902    4.56  0.001444  ( 0.034419  0.012506 -0.010141)
 13:    199.14   0.000328    1.66  0.000514  (-0.014221 -0.002354 -0.017489)
 14:    238.95   0.000108    0.55  0.000142  ( 0.005772 -0.001146  0.010339)
 15:    266.42   0.000092    0.47  0.000108  (-0.003805 -0.008314  0.004957)
 16:    270.54   0.000094    0.47  0.000108  ( 0.006851  0.003419  0.007023)
 17:    303.15   0.000204    1.03  0.000210  ( 0.008447 -0.001708  0.011646)
 18:    324.59   0.000204    1.03  0.000197  (-0.011798 -0.007460  0.001315)
 19:    393.77   0.000690    3.49  0.000547  ( 0.022728  0.000622 -0.005496)
 20:    409.49   0.000333    1.68  0.000254  (-0.008927 -0.013194  0.000486)
 21:    413.22   0.000221    1.12  0.000167  (-0.007966 -0.008952 -0.004836)
 22:    481.65   0.000319    1.61  0.000207  ( 0.005145  0.003930  0.012836)
 23:    517.75   0.000034    0.17  0.000021  (-0.003684  0.002447 -0.001001)
 24:    615.26   0.002377   12.01  0.001206  ( 0.034105  0.003335  0.005605)
 25:    625.83   0.000532    2.69  0.000265  ( 0.006724 -0.011843 -0.008931)
 26:    646.66   0.001585    8.01  0.000765  ( 0.018686 -0.001877 -0.020302)
 27:    761.79   0.000042    0.21  0.000017  (-0.001523  0.000741 -0.003803)
 28:    790.76   0.000918    4.64  0.000362  ( 0.008909  0.003635 -0.016428)
 29:    804.35   0.005448   27.53  0.002114  ( 0.044258  0.008244 -0.009327)
 30:    822.88   0.005539   27.99  0.002101  (-0.008592 -0.009046 -0.044102)
 31:    850.48   0.001473    7.44  0.000540  ( 0.009382  0.008064  0.019679)
 32:    899.59   0.004630   23.40  0.001606  (-0.012320 -0.011609 -0.036325)
 33:    947.98   0.004249   21.47  0.001399  (-0.030536 -0.020079  0.007949)
 34:    964.12   0.000535    2.71  0.000173  (-0.007886 -0.007479 -0.007427)
 35:   1009.34   0.005816   29.39  0.001798  ( 0.002940  0.006480 -0.041802)
 36:   1017.53   0.003517   17.77  0.001079  (-0.002472 -0.005483  0.032287)
 37:   1091.93   0.000118    0.60  0.000034  (-0.004509  0.002938 -0.002198)
 38:   1103.48   0.010088   50.98  0.002853  ( 0.012183 -0.051424  0.007749)
 39:   1134.10   0.000324    1.64  0.000089  (-0.009233 -0.001840  0.000805)
 40:   1151.49   0.000505    2.55  0.000137  (-0.011441  0.002162 -0.001142)
 41:   1195.00   0.009332   47.16  0.002437  (-0.012795  0.046949 -0.008307)
 42:   1205.19   0.000103    0.52  0.000027  (-0.000032 -0.001290 -0.004999)
 43:   1205.25   0.000222    1.12  0.000057  ( 0.000289  0.001378  0.007447)
 44:   1225.98   0.013937   70.43  0.003547  (-0.031916  0.049151 -0.010631)
 45:   1235.50   0.001154    5.83  0.000292  (-0.007134 -0.015243  0.002886)
 46:   1247.84   0.000872    4.41  0.000218  (-0.002950  0.013681 -0.004709)
 47:   1314.60   0.032081  162.12  0.007615  ( 0.034145  0.079002 -0.014432)
 48:   1322.07   0.049802  251.68  0.011755  (-0.086479  0.064714 -0.009417)
 49:   1342.02   0.006820   34.46  0.001586  ( 0.038200 -0.011092  0.001883)
 50:   1357.66   0.005032   25.43  0.001157  (-0.015622 -0.029531  0.006362)
 51:   1366.30   0.006473   32.71  0.001478  ( 0.031415  0.021983 -0.002887)
 52:   1404.09   0.025628  129.51  0.005696  (-0.073706 -0.015541  0.004674)
 53:   1446.36   0.000931    4.71  0.000201  (-0.000686 -0.014073 -0.001566)
 54:   1485.13   0.006625   33.48  0.001392  ( 0.017451  0.032575 -0.005134)
 55:   1508.46   0.002717   13.73  0.000562  ( 0.022447  0.007463 -0.001611)
 56:   1509.83   0.002048   10.35  0.000423  (-0.000073 -0.004931  0.019976)
 57:   1516.68   0.002741   13.85  0.000564  (-0.002547 -0.023554 -0.001661)
 58:   1526.72   0.000731    3.69  0.000149  ( 0.002853  0.009736  0.006812)
 59:   1528.72   0.001243    6.28  0.000254  (-0.001280  0.003280  0.015536)
 60:   1529.22   0.003133   15.83  0.000639  (-0.000440 -0.004385 -0.024897)
 61:   1537.01   0.008453   42.72  0.001716  ( 0.039809 -0.011200  0.002483)
 62:   1537.94   0.009932   50.19  0.002015  (-0.028372 -0.033938  0.007656)
 63:   1613.15   0.063208  319.43  0.012228  (-0.108039 -0.022747  0.006138)
 64:   1696.36   0.007975   40.30  0.001467  ( 0.008545  0.036639 -0.007191)
 65:   1721.22   0.007772   39.28  0.001409  ( 0.016617 -0.033273  0.005097)
 66:   1792.86   0.000284    1.43  0.000049  (-0.006959 -0.000360  0.000924)
 67:   3085.02   0.020397  103.08  0.002063  ( 0.018893 -0.040735  0.006850)
 68:   3086.03   0.002558   12.93  0.000259  ( 0.013685  0.008337 -0.001389)
 69:   3099.73   0.008521   43.06  0.000858  (-0.029252  0.000245 -0.001438)
 70:   3170.35   0.003782   19.11  0.000372  (-0.000801 -0.003447 -0.018968)
 71:   3170.78   0.006818   34.45  0.000671  (-0.000852 -0.004497 -0.025496)
 72:   3177.77   0.001573    7.95  0.000155  (-0.000222  0.003311 -0.011979)
 73:   3201.36   0.000495    2.50  0.000048  ( 0.003524  0.005833  0.001361)
 74:   3205.19   0.003294   16.65  0.000321  ( 0.012347 -0.012593 -0.003111)
 75:   3220.62   0.003686   18.63  0.000357  ( 0.006887 -0.016663 -0.005666)
 76:   3226.96   0.001512    7.64  0.000146  ( 0.008994  0.007911 -0.001660)
 77:   3227.28   0.002223   11.24  0.000215  (-0.014559 -0.001563  0.000766)
 78:   3265.91   0.001042    5.27  0.000100  ( 0.009196  0.003314 -0.002010)
 79:   3277.34   0.000996    5.03  0.000095  (-0.000498  0.009539 -0.001905)
 80:   3289.90   0.000932    4.71  0.000088  (-0.005671  0.007279 -0.001795)

--------------------------
THERMOCHEMISTRY AT 298.15K
--------------------------

Temperature         ...   298.15 K
Pressure            ...     1.00 atm
Total Mass          ...   178.23 AMU
Quasi RRHO          ...     True
Cut-Off Frequency   ...     1.00 cm^-1

Throughout the following assumptions are being made:
  (1) The electronic state is orbitally nondegenerate
  (2) There are no thermally accessible electronically excited states
  (3) Hindered rotations indicated by low frequency modes are not
      treated as such but are treated as vibrations and this may
      cause some error
  (4) All equations used are the standard statistical mechanics
      equations for an ideal gas
  (5) All vibrations are strictly harmonic

freq.      49.98  E(vib)   ...       0.52
freq.      75.23  E(vib)   ...       0.49
freq.      82.92  E(vib)   ...       0.48
freq.     107.24  E(vib)   ...       0.45
freq.     122.28  E(vib)   ...       0.43
freq.     177.59  E(vib)   ...       0.37
freq.     194.84  E(vib)   ...       0.36
freq.     199.14  E(vib)   ...       0.35
freq.     238.95  E(vib)   ...       0.32
freq.     266.42  E(vib)   ...       0.29
freq.     270.54  E(vib)   ...       0.29
freq.     303.15  E(vib)   ...       0.26
freq.     324.59  E(vib)   ...       0.24
freq.     393.77  E(vib)   ...       0.20
freq.     409.49  E(vib)   ...       0.19
freq.     413.22  E(vib)   ...       0.19
freq.     481.65  E(vib)   ...       0.15
freq.     517.75  E(vib)   ...       0.13
freq.     615.26  E(vib)   ...       0.10
freq.     625.83  E(vib)   ...       0.09
freq.     646.66  E(vib)   ...       0.09
freq.     761.79  E(vib)   ...       0.06
freq.     790.76  E(vib)   ...       0.05
freq.     804.35  E(vib)   ...       0.05
freq.     822.88  E(vib)   ...       0.05
freq.     850.48  E(vib)   ...       0.04
freq.     899.59  E(vib)   ...       0.03
freq.     947.98  E(vib)   ...       0.03
freq.     964.12  E(vib)   ...       0.03
freq.    1009.34  E(vib)   ...       0.02
freq.    1017.53  E(vib)   ...       0.02
freq.    1091.93  E(vib)   ...       0.02
freq.    1103.48  E(vib)   ...       0.02
freq.    1134.10  E(vib)   ...       0.01
freq.    1151.49  E(vib)   ...       0.01
freq.    1195.00  E(vib)   ...       0.01
freq.    1205.19  E(vib)   ...       0.01
freq.    1205.25  E(vib)   ...       0.01
freq.    1225.98  E(vib)   ...       0.01
freq.    1235.50  E(vib)   ...       0.01
freq.    1247.84  E(vib)   ...       0.01
freq.    1314.60  E(vib)   ...       0.01
freq.    1322.07  E(vib)   ...       0.01
freq.    1342.02  E(vib)   ...       0.01
freq.    1357.66  E(vib)   ...       0.01
freq.    1366.30  E(vib)   ...       0.01
freq.    1404.09  E(vib)   ...       0.00
freq.    1446.36  E(vib)   ...       0.00
freq.    1485.13  E(vib)   ...       0.00
freq.    1508.46  E(vib)   ...       0.00
freq.    1509.83  E(vib)   ...       0.00
freq.    1516.68  E(vib)   ...       0.00
freq.    1526.72  E(vib)   ...       0.00
freq.    1528.72  E(vib)   ...       0.00
freq.    1529.22  E(vib)   ...       0.00
freq.    1537.01  E(vib)   ...       0.00
freq.    1537.94  E(vib)   ...       0.00
freq.    1613.15  E(vib)   ...       0.00
freq.    1696.36  E(vib)   ...       0.00
freq.    1721.22  E(vib)   ...       0.00
freq.    1792.86  E(vib)   ...       0.00
freq.    3085.02  E(vib)   ...       0.00
freq.    3086.03  E(vib)   ...       0.00
freq.    3099.73  E(vib)   ...       0.00
freq.    3170.35  E(vib)   ...       0.00
freq.    3170.78  E(vib)   ...       0.00
freq.    3177.77  E(vib)   ...       0.00
freq.    3201.36  E(vib)   ...       0.00
freq.    3205.19  E(vib)   ...       0.00
freq.    3220.62  E(vib)   ...       0.00
freq.    3226.96  E(vib)   ...       0.00
freq.    3227.28  E(vib)   ...       0.00
freq.    3265.91  E(vib)   ...       0.00
freq.    3277.34  E(vib)   ...       0.00
freq.    3289.90  E(vib)   ...       0.00

------------
INNER ENERGY
------------

The inner energy is: U= E(el) + E(ZPE) + E(vib) + E(rot) + E(trans)
    E(el)   - is the total energy from the electronic structure calculation
              = E(kin-el) + E(nuc-el) + E(el-el) + E(nuc-nuc)
    E(ZPE)  - the the zero temperature vibrational energy from the frequency calculation
    E(vib)  - the the finite temperature correction to E(ZPE) due to population
              of excited vibrational states
    E(rot)  - is the rotational thermal energy
    E(trans)- is the translational thermal energy

Summary of contributions to the inner energy U:
Electronic energy                ...   -103.16492972 Eh
Zero point energy                ...      0.23224027 Eh     145.73 kcal/mol
Thermal vibrational correction   ...      0.01044758 Eh       6.56 kcal/mol
Thermal rotational correction    ...      0.00141627 Eh       0.89 kcal/mol
Thermal translational correction ...      0.00141627 Eh       0.89 kcal/mol
-----------------------------------------------------------------------
Total thermal energy                   -102.91940932 Eh

Summary of corrections to the electronic energy:
(perhaps to be used in another calculation)
Total thermal correction                  0.01328012 Eh       8.33 kcal/mol
Non-thermal (ZPE) correction              0.23224027 Eh     145.73 kcal/mol
-----------------------------------------------------------------------
Total correction                          0.24552040 Eh     154.07 kcal/mol

--------
ENTHALPY
--------

The enthalpy is H = U + kB*T
                kB is Boltzmann's constant
Total thermal energy              ...   -102.91940932 Eh
Thermal Enthalpy correction       ...      0.00094421 Eh       0.59 kcal/mol
-----------------------------------------------------------------------
Total Enthalpy                    ...   -102.91846511 Eh

Note: Only C1 symmetry has been detected, increase convergence thresholds
      if your molecule has a higher symmetry. Symmetry factor of 1.0 is
      used for the rotational entropy correction.

Note: Rotational entropy computed according to Herzberg
Infrared and Raman Spectra, Chapter V,1, Van Nostrand Reinhold, 1945
Point Group:  C1, Symmetry Number:   1
Rotational constants in cm-1:     0.044625     0.014527     0.011070

Vibrational entropy computed according to the QRRHO of S. Grimme
Chem.Eur.J. 2012 18 9955 using a reference frequency of 100.0 cm-1

-------
ENTROPY
-------

The entropy contributions are T*S = T*(S(el)+S(vib)+S(rot)+S(trans))
     S(el)   - electronic entropy
     S(vib)  - vibrational entropy
     S(rot)  - rotational entropy
     S(trans)- translational entropy

                             ****ORCA TERMINATED NORMALLY****
TOTAL RUN TIME: 0 days 0 hours 25 minutes 43 seconds 299 msec
