                         Program Version 6.0.1  -  RELEASE   -
|  1> ! wB97X-3c OPT FREQ TightSCF
|  2> %pal
|  3>   nprocs 40
|  4> end
|  5> * xyz 0 1
|  6> C      2.057253    -0.070495     0.991385
|  7> C      0.870183    -0.168162     0.007417
|  8> C     -0.252590    -1.114174     0.561656
|  9> C     -1.348666    -1.363355    -0.502713
| 10> C     -2.022451     0.019439    -0.632593
| 11> C     -1.307102     0.853888     0.444503
| 12> C     -1.026954    -0.193548     1.499112
| 13> C      0.089859     1.123600    -0.047085
| 14> C      0.532177     2.300991    -0.504118
| 15> C      1.403372    -0.576973    -1.384952
| 16> H      1.747646     0.287544     1.993403
| 17> H      2.822222     0.639485     0.610177
| 18> H      2.534437    -1.066703     1.110325
| 19> H      0.120113    -2.045448     1.040320
| 20> H     -2.080881    -2.108858    -0.119435
| 21> H     -0.961385    -1.745556    -1.468138
| 22> H     -3.109493    -0.052294    -0.408960
| 23> H     -1.882531     0.450273    -1.648770
| 24> H     -1.865086     1.743956     0.806943
| 25> H     -1.955874    -0.658634     1.905931
| 26> H     -0.432796     0.198671     2.352490
| 27> H      1.550724     2.406484    -0.862627
| 28> H     -0.124277     3.164834    -0.521492
| 29> H      1.677939    -1.653320    -1.388514
| 30> H      2.306245     0.014290    -1.649202
| 31> H      0.657914    -0.385935    -2.185062
| 32> *
| 33>
| 34>                          ****END OF INPUT****
 Total Charge           Charge          ....    0
 Multiplicity           Mult            ....    1
 Number of Electrons    NEL             ....   56
Dispersion correction           -0.034039985
FINAL SINGLE POINT ENERGY       -66.609750584164
Dispersion correction             ... done (  0.1 sec)
Dispersion correction           -0.034340420
FINAL SINGLE POINT ENERGY       -66.616457053789
Dispersion correction             ... done (  0.1 sec)
Dispersion correction           -0.034345625
FINAL SINGLE POINT ENERGY       -66.616889773349
Dispersion correction             ... done (  0.1 sec)
Dispersion correction           -0.034332581
FINAL SINGLE POINT ENERGY       -66.617026531053
Dispersion correction             ... done (  0.1 sec)
Dispersion correction           -0.034323029
FINAL SINGLE POINT ENERGY       -66.617039318267
Dispersion correction             ... done (  0.1 sec)
                    ***********************HURRAY********************

CARTESIAN COORDINATES (ANGSTROEM)
---------------------------------
  C      2.014509   -0.086511    0.974500
  C      0.845171   -0.175211   -0.003389
  C     -0.255140   -1.111969    0.555666
  C     -1.338666   -1.361360   -0.496330
  C     -2.021830    0.018141   -0.627553
  C     -1.305152    0.866298    0.437196
  C     -1.013299   -0.184713    1.509292
  C      0.081674    1.146563   -0.071326
  C      0.550467    2.309243   -0.490797
  C      1.390742   -0.593988   -1.362521
  H      1.695424    0.182506    1.978836
  H      2.729120    0.667176    0.646013
  H      2.534878   -1.043894    1.028360
  H      0.151267   -2.024157    0.991867
  H     -2.041334   -2.107704   -0.125622
  H     -0.949250   -1.737983   -1.438704
  H     -3.087656   -0.044888   -0.407951
  H     -1.917793    0.451463   -1.621262
  H     -1.852837    1.754262    0.745114
  H     -1.917120   -0.643335    1.911471
  H     -0.417682    0.197643    2.335358
  H      1.566019    2.418324   -0.850296
  H     -0.068172    3.197541   -0.489590
  H      1.764554   -1.618777   -1.329782
  H      2.220244    0.051114   -1.650629
  H      0.641857   -0.525780   -2.147920

 Multiplicity           Mult            ....    1
 Number of Electrons    NEL             ....   56
 Basis Dimension        Dim             ....  210

ORBITAL ENERGIES
----------------

  NO   OCC          E(Eh)            E(eV)
   0   2.0000      -1.032340       -28.0914
   1   2.0000      -0.929697       -25.2984
   2   2.0000      -0.894159       -24.3313
   3   2.0000      -0.850657       -23.1475
   4   2.0000      -0.820296       -22.3214
   5   2.0000      -0.812495       -22.1091
   6   2.0000      -0.754712       -20.5368
   7   2.0000      -0.694898       -18.9091
   8   2.0000      -0.679377       -18.4868
   9   2.0000      -0.618980       -16.8433
  10   2.0000      -0.613905       -16.7052
  11   2.0000      -0.599350       -16.3092
  12   2.0000      -0.559399       -15.2220
  13   2.0000      -0.553309       -15.0563
  14   2.0000      -0.532818       -14.4987
  15   2.0000      -0.515662       -14.0319
  16   2.0000      -0.500339       -13.6149
  17   2.0000      -0.495159       -13.4740
  18   2.0000      -0.486616       -13.2415
  19   2.0000      -0.468811       -12.7570
  20   2.0000      -0.454393       -12.3647
  21   2.0000      -0.452045       -12.3008
  22   2.0000      -0.437992       -11.9184
  23   2.0000      -0.431653       -11.7459
  24   2.0000      -0.418192       -11.3796
  25   2.0000      -0.400546       -10.8994
  26   2.0000      -0.395837       -10.7713
  27   2.0000      -0.339915        -9.2496
  28   0.0000       0.087512         2.3813
  29   0.0000       0.094954         2.5838
  30   0.0000       0.100632         2.7383
  31   0.0000       0.105384         2.8676
  32   0.0000       0.115152         3.1334

MULLIKEN ATOMIC CHARGES
-----------------------
   0 C :    0.014131
   1 C :   -0.233749
   2 C :   -0.034694
   3 C :   -0.036022
   4 C :   -0.037850
   5 C :   -0.056018
   6 C :   -0.017943
   7 C :   -0.021076
   8 C :   -0.025719
   9 C :    0.009186
  10 H :    0.018268
  11 H :    0.026391
  12 H :    0.023444
  13 H :    0.034606
  14 H :    0.033835
  15 H :    0.027221
  16 H :    0.034887
  17 H :    0.036348
  18 H :    0.031215
  19 H :    0.030685
  20 H :    0.030324
  21 H :    0.015326
  22 H :    0.021796
  23 H :    0.026875
  24 H :    0.026180
  25 H :    0.022352
Sum of atomic charges:   -0.0000000

LOEWDIN ATOMIC CHARGES
----------------------
   0 C :   -0.097341
   1 C :   -0.062808
   2 C :   -0.045446
   3 C :   -0.066024
   4 C :   -0.059106
   5 C :   -0.052675
   6 C :   -0.060988
   7 C :   -0.019526
   8 C :   -0.084652
   9 C :   -0.100542
  10 H :    0.041523
  11 H :    0.044637
  12 H :    0.043649
  13 H :    0.038771
  14 H :    0.041465
  15 H :    0.035741
  16 H :    0.040703
  17 H :    0.039681
  18 H :    0.042474
  19 H :    0.044582
  20 H :    0.039142
  21 H :    0.031348
  22 H :    0.033131
  23 H :    0.044686
  24 H :    0.045468
  25 H :    0.042108

  Mayer bond orders larger than 0.100000
B(  0-C ,  1-C ) :   1.0088 B(  0-C , 10-H ) :   0.9917 B(  0-C , 11-H ) :   0.9901
B(  0-C , 12-H ) :   0.9890 B(  1-C ,  2-C ) :   0.9758 B(  1-C ,  7-C ) :   1.0087
B(  1-C ,  9-C ) :   1.0102 B(  2-C ,  3-C ) :   1.0004 B(  2-C ,  6-C ) :   0.9877
B(  2-C , 13-H ) :   1.0007 B(  3-C ,  4-C ) :   0.9753 B(  3-C , 14-H ) :   0.9996
B(  3-C , 15-H ) :   1.0031 B(  4-C ,  5-C ) :   0.9766 B(  4-C , 16-H ) :   0.9992
B(  4-C , 17-H ) :   1.0000 B(  5-C ,  6-C ) :   0.9779 B(  5-C ,  7-C ) :   1.0201
B(  5-C , 18-H ) :   1.0015 B(  6-C , 19-H ) :   0.9979 B(  6-C , 20-H ) :   1.0020
B(  7-C ,  8-C ) :   1.9731 B(  8-C , 21-H ) :   0.9815 B(  8-C , 22-H ) :   0.9770
B(  9-C , 23-H ) :   0.9877 B(  9-C , 24-H ) :   0.9906 B(  9-C , 25-H ) :   0.9905

Dispersion correction           -0.034324914
FINAL SINGLE POINT ENERGY       -66.617042491231

DIPOLE MOMENT
-------------

Method             : SCF
Type of density    : Electron Density
Multiplicity       :   1
Irrep              :   0
Energy             :   -66.5827175775250595 Eh
Relativity type    :
Basis              : AO
                                X                 Y                 Z
Electronic contribution:     -3.129961011       2.151274367       1.290629844
Nuclear contribution   :      3.025803313      -2.378266377      -1.222200615
                        -----------------------------------------
Total Dipole Moment    :     -0.104157698      -0.226992011       0.068429229
                        -----------------------------------------
Magnitude (a.u.)       :      0.258953197
Magnitude (Debye)      :      0.658206719

VIBRATIONAL FREQUENCIES
-----------------------

Scaling factor for frequencies =  1.000000000  (already applied!)

     0:       0.00 cm**-1
     1:       0.00 cm**-1
     2:       0.00 cm**-1
     3:       0.00 cm**-1
     4:       0.00 cm**-1
     5:       0.00 cm**-1
     6:      97.86 cm**-1
     7:     203.63 cm**-1
     8:     228.53 cm**-1
     9:     243.72 cm**-1
    10:     263.97 cm**-1
    11:     285.91 cm**-1
    12:     329.43 cm**-1
    13:     386.72 cm**-1
    14:     429.01 cm**-1
    15:     445.23 cm**-1
    16:     470.29 cm**-1
    17:     535.56 cm**-1
    18:     662.79 cm**-1
    19:     703.78 cm**-1
    20:     732.80 cm**-1
    21:     781.13 cm**-1
    22:     797.72 cm**-1
    23:     843.53 cm**-1
    24:     865.52 cm**-1
    25:     923.50 cm**-1
    26:     930.02 cm**-1
    27:     937.04 cm**-1
    28:     957.27 cm**-1
    29:     974.82 cm**-1
    30:     980.64 cm**-1
    31:     992.76 cm**-1
    32:    1002.17 cm**-1
    33:    1017.94 cm**-1
    34:    1039.68 cm**-1
    35:    1063.40 cm**-1
    36:    1091.57 cm**-1
    37:    1143.00 cm**-1
    38:    1165.05 cm**-1
    39:    1207.00 cm**-1
    40:    1232.80 cm**-1
    41:    1247.97 cm**-1
    42:    1268.06 cm**-1
    43:    1270.17 cm**-1
    44:    1303.01 cm**-1
    45:    1310.23 cm**-1
    46:    1316.84 cm**-1
    47:    1349.10 cm**-1
    48:    1366.32 cm**-1
    49:    1376.72 cm**-1
    50:    1395.34 cm**-1
    51:    1431.74 cm**-1
    52:    1448.14 cm**-1
    53:    1476.81 cm**-1
    54:    1510.00 cm**-1
    55:    1513.12 cm**-1
    56:    1523.04 cm**-1
    57:    1530.90 cm**-1
    58:    1536.58 cm**-1
    59:    1541.52 cm**-1
    60:    1562.78 cm**-1
    61:    1791.41 cm**-1
    62:    3096.73 cm**-1
    63:    3101.34 cm**-1
    64:    3117.28 cm**-1
    65:    3126.53 cm**-1
    66:    3129.99 cm**-1
    67:    3153.70 cm**-1
    68:    3173.20 cm**-1
    69:    3176.48 cm**-1
    70:    3181.16 cm**-1
    71:    3186.96 cm**-1
    72:    3193.04 cm**-1
    73:    3195.60 cm**-1
    74:    3202.23 cm**-1
    75:    3208.37 cm**-1
    76:    3210.82 cm**-1
    77:    3294.56 cm**-1

IR SPECTRUM
-----------

 Mode   freq       eps      Int      T**2         TX        TY        TZ
       cm**-1   L/(mol*cm) km/mol    a.u.
----------------------------------------------------------------------------
  6:     97.86   0.000001    0.00  0.000002  (-0.001067 -0.000206 -0.000851)
  7:    203.63   0.000101    0.51  0.000154  ( 0.003929  0.004326  0.010952)
  8:    228.53   0.000024    0.12  0.000032  ( 0.004231  0.002895  0.002478)
  9:    243.72   0.000058    0.30  0.000075  (-0.000061 -0.005687 -0.006515)
 10:    263.97   0.000008    0.04  0.000009  (-0.002844 -0.000968  0.000325)
 11:    285.91   0.000086    0.43  0.000094  (-0.009592  0.001236  0.000464)
 12:    329.43   0.000052    0.26  0.000049  ( 0.001439  0.004515 -0.005177)
 13:    386.72   0.000012    0.06  0.000010  ( 0.002536  0.001729 -0.000386)
 14:    429.01   0.000033    0.17  0.000024  (-0.003818 -0.002792 -0.001386)
 15:    445.23   0.000017    0.09  0.000012  (-0.003045 -0.000498 -0.001623)
 16:    470.29   0.000027    0.14  0.000018  ( 0.002067  0.002668  0.002561)
 17:    535.56   0.000049    0.25  0.000029  ( 0.001028  0.005198  0.000666)
 18:    662.79   0.000532    2.69  0.000251  ( 0.001862  0.000129  0.015720)
 19:    703.78   0.001046    5.29  0.000464  ( 0.008677  0.005155  0.019023)
 20:    732.80   0.000148    0.75  0.000063  (-0.002031 -0.000304 -0.007661)
 21:    781.13   0.000383    1.93  0.000153  ( 0.001947 -0.000163  0.012209)
 22:    797.72   0.000292    1.47  0.000114  (-0.007562  0.000734  0.007511)
 23:    843.53   0.000388    1.96  0.000144  (-0.007975 -0.003638  0.008165)
 24:    865.52   0.000102    0.52  0.000037  ( 0.003547  0.000546  0.004902)
 25:    923.50   0.001433    7.24  0.000484  ( 0.006265  0.000478  0.021085)
 26:    930.02   0.006680   33.76  0.002242  (-0.015067 -0.011317 -0.043433)
 27:    937.04   0.000894    4.52  0.000298  (-0.009704  0.014263  0.000533)
 28:    957.27   0.000046    0.23  0.000015  (-0.003800  0.000535 -0.000418)
 29:    974.82   0.000235    1.19  0.000075  ( 0.000499  0.003323  0.008004)
 30:    980.64   0.000168    0.85  0.000053  ( 0.003398  0.003634  0.005360)
 31:    992.76   0.000133    0.67  0.000042  ( 0.005687  0.001790 -0.002524)
 32:   1002.17   0.000365    1.85  0.000114  (-0.007997 -0.006787  0.001939)
 33:   1017.94   0.000574    2.90  0.000176  ( 0.010440  0.007982  0.001840)
 34:   1039.68   0.000004    0.02  0.000001  (-0.000916  0.000607  0.000205)
 35:   1063.40   0.000078    0.40  0.000023  (-0.003568  0.002546 -0.001931)
 36:   1091.57   0.000290    1.46  0.000083  ( 0.005846  0.003116  0.006244)
 37:   1143.00   0.000578    2.92  0.000158  ( 0.006992 -0.010421 -0.000514)
 38:   1165.05   0.001341    6.78  0.000359  ( 0.009499  0.009033 -0.013690)
 39:   1207.00   0.000360    1.82  0.000093  (-0.003478  0.008866  0.001563)
 40:   1232.80   0.000754    3.81  0.000191  (-0.012332 -0.004348 -0.004462)
 41:   1247.97   0.000051    0.26  0.000013  (-0.001175  0.003360 -0.000098)
 42:   1268.06   0.000309    1.56  0.000076  ( 0.004020  0.005757 -0.005178)
 43:   1270.17   0.000156    0.79  0.000038  (-0.005108 -0.002945  0.001867)
 44:   1303.01   0.000049    0.25  0.000012  ( 0.001139 -0.002167  0.002372)
 45:   1310.23   0.000051    0.26  0.000012  ( 0.003242  0.000661 -0.001081)
 46:   1316.84   0.000123    0.62  0.000029  ( 0.002333 -0.004862 -0.000345)
 47:   1349.10   0.000137    0.69  0.000032  ( 0.000250 -0.004404 -0.003511)
 48:   1366.32   0.000415    2.10  0.000095  ( 0.008980 -0.003751 -0.000067)
 49:   1376.72   0.000410    2.07  0.000093  (-0.000948 -0.003895 -0.008767)
 50:   1395.34   0.000120    0.61  0.000027  (-0.004880 -0.000969  0.001452)
 51:   1431.74   0.002344   11.85  0.000511  (-0.005593 -0.004919 -0.021341)
 52:   1448.14   0.001767    8.93  0.000381  (-0.018605  0.002728  0.005206)
 53:   1476.81   0.001597    8.07  0.000338  (-0.010013 -0.014109  0.006181)
 54:   1510.00   0.000206    1.04  0.000043  (-0.004134 -0.004045 -0.003007)
 55:   1513.12   0.000329    1.66  0.000068  (-0.000798  0.004673 -0.006735)
 56:   1523.04   0.001409    7.12  0.000289  (-0.004623  0.013715 -0.008899)
 57:   1530.90   0.001299    6.56  0.000265  ( 0.014295  0.005422  0.005565)
 58:   1536.58   0.002177   11.00  0.000442  (-0.003343 -0.014328 -0.015022)
 59:   1541.52   0.002715   13.72  0.000550  ( 0.009734  0.007932 -0.019798)
 60:   1562.78   0.001324    6.69  0.000264  ( 0.015905  0.000950  0.003247)
 61:   1791.41   0.006426   32.48  0.001119  ( 0.011414  0.030149 -0.008956)
 62:   3096.73   0.004745   23.98  0.000478  (-0.001559  0.006888  0.020696)
 63:   3101.34   0.007758   39.20  0.000781  ( 0.026462 -0.008842  0.001483)
 64:   3117.28   0.004493   22.71  0.000450  (-0.014358  0.013935 -0.007032)
 65:   3126.53   0.005579   28.20  0.000557  (-0.007980 -0.001345  0.022167)
 66:   3129.99   0.009660   48.82  0.000963  (-0.024384 -0.014095 -0.013031)
 67:   3153.70   0.010451   52.82  0.001034  ( 0.004349 -0.030227  0.010081)
 68:   3173.20   0.004298   21.72  0.000423  ( 0.013209 -0.015238 -0.004007)
 69:   3176.48   0.002958   14.95  0.000291  ( 0.014379  0.002536 -0.008797)
 70:   3181.16   0.001029    5.20  0.000101  (-0.002570 -0.009258  0.002932)
 71:   3186.96   0.004481   22.64  0.000439  ( 0.000924 -0.020683  0.003179)
 72:   3193.04   0.002630   13.29  0.000257  ( 0.004006  0.010219  0.011686)
 73:   3195.60   0.006320   31.94  0.000617  ( 0.022324  0.004997 -0.009687)
 74:   3202.23   0.002109   10.66  0.000206  ( 0.005048  0.012797 -0.004036)
 75:   3208.37   0.004504   22.76  0.000438  ( 0.011143  0.001180  0.017679)
 76:   3210.82   0.002900   14.66  0.000282  (-0.007306  0.005030  0.014255)
 77:   3294.56   0.001225    6.19  0.000116  ( 0.009442 -0.004771 -0.002017)

--------------------------
THERMOCHEMISTRY AT 298.15K
--------------------------

Temperature         ...   298.15 K
Pressure            ...     1.00 atm
Total Mass          ...   136.24 AMU
Quasi RRHO          ...     True
Cut-Off Frequency   ...     1.00 cm^-1

Throughout the following assumptions are being made:
  (1) The electronic state is orbitally nondegenerate
  (2) There are no thermally accessible electronically excited states
  (3) Hindered rotations indicated by low frequency modes are not
      treated as such but are treated as vibrations and this may
      cause some error
  (4) All equations used are the standard statistical mechanics
      equations for an ideal gas
  (5) All vibrations are strictly harmonic

freq.      97.86  E(vib)   ...       0.46
freq.     203.63  E(vib)   ...       0.35
freq.     228.53  E(vib)   ...       0.32
freq.     243.72  E(vib)   ...       0.31
freq.     263.97  E(vib)   ...       0.29
freq.     285.91  E(vib)   ...       0.27
freq.     329.43  E(vib)   ...       0.24
freq.     386.72  E(vib)   ...       0.20
freq.     429.01  E(vib)   ...       0.18
freq.     445.23  E(vib)   ...       0.17
freq.     470.29  E(vib)   ...       0.16
freq.     535.56  E(vib)   ...       0.12
freq.     662.79  E(vib)   ...       0.08
freq.     703.78  E(vib)   ...       0.07
freq.     732.80  E(vib)   ...       0.06
freq.     781.13  E(vib)   ...       0.05
freq.     797.72  E(vib)   ...       0.05
freq.     843.53  E(vib)   ...       0.04
freq.     865.52  E(vib)   ...       0.04
freq.     923.50  E(vib)   ...       0.03
freq.     930.02  E(vib)   ...       0.03
freq.     937.04  E(vib)   ...       0.03
freq.     957.27  E(vib)   ...       0.03
freq.     974.82  E(vib)   ...       0.03
freq.     980.64  E(vib)   ...       0.02
freq.     992.76  E(vib)   ...       0.02
freq.    1002.17  E(vib)   ...       0.02
freq.    1017.94  E(vib)   ...       0.02
freq.    1039.68  E(vib)   ...       0.02
freq.    1063.40  E(vib)   ...       0.02
freq.    1091.57  E(vib)   ...       0.02
freq.    1143.00  E(vib)   ...       0.01
freq.    1165.05  E(vib)   ...       0.01
freq.    1207.00  E(vib)   ...       0.01
freq.    1232.80  E(vib)   ...       0.01
freq.    1247.97  E(vib)   ...       0.01
freq.    1268.06  E(vib)   ...       0.01
freq.    1270.17  E(vib)   ...       0.01
freq.    1303.01  E(vib)   ...       0.01
freq.    1310.23  E(vib)   ...       0.01
freq.    1316.84  E(vib)   ...       0.01
freq.    1349.10  E(vib)   ...       0.01
freq.    1366.32  E(vib)   ...       0.01
freq.    1376.72  E(vib)   ...       0.01
freq.    1395.34  E(vib)   ...       0.00
freq.    1431.74  E(vib)   ...       0.00
freq.    1448.14  E(vib)   ...       0.00
freq.    1476.81  E(vib)   ...       0.00
freq.    1510.00  E(vib)   ...       0.00
freq.    1513.12  E(vib)   ...       0.00
freq.    1523.04  E(vib)   ...       0.00
freq.    1530.90  E(vib)   ...       0.00
freq.    1536.58  E(vib)   ...       0.00
freq.    1541.52  E(vib)   ...       0.00
freq.    1562.78  E(vib)   ...       0.00
freq.    1791.41  E(vib)   ...       0.00
freq.    3096.73  E(vib)   ...       0.00
freq.    3101.34  E(vib)   ...       0.00
freq.    3117.28  E(vib)   ...       0.00
freq.    3126.53  E(vib)   ...       0.00
freq.    3129.99  E(vib)   ...       0.00
freq.    3153.70  E(vib)   ...       0.00
freq.    3173.20  E(vib)   ...       0.00
freq.    3176.48  E(vib)   ...       0.00
freq.    3181.16  E(vib)   ...       0.00
freq.    3186.96  E(vib)   ...       0.00
freq.    3193.04  E(vib)   ...       0.00
freq.    3195.60  E(vib)   ...       0.00
freq.    3202.23  E(vib)   ...       0.00
freq.    3208.37  E(vib)   ...       0.00
freq.    3210.82  E(vib)   ...       0.00
freq.    3294.56  E(vib)   ...       0.00

------------
INNER ENERGY
------------

The inner energy is: U= E(el) + E(ZPE) + E(vib) + E(rot) + E(trans)
    E(el)   - is the total energy from the electronic structure calculation
              = E(kin-el) + E(nuc-el) + E(el-el) + E(nuc-nuc)
    E(ZPE)  - the the zero temperature vibrational energy from the frequency calculation
    E(vib)  - the the finite temperature correction to E(ZPE) due to population
              of excited vibrational states
    E(rot)  - is the rotational thermal energy
    E(trans)- is the translational thermal energy

Summary of contributions to the inner energy U:
Electronic energy                ...    -66.61704249 Eh
Zero point energy                ...      0.24327097 Eh     152.65 kcal/mol
Thermal vibrational correction   ...      0.00623575 Eh       3.91 kcal/mol
Thermal rotational correction    ...      0.00141627 Eh       0.89 kcal/mol
Thermal translational correction ...      0.00141627 Eh       0.89 kcal/mol
-----------------------------------------------------------------------
Total thermal energy                    -66.36470324 Eh

Summary of corrections to the electronic energy:
(perhaps to be used in another calculation)
Total thermal correction                  0.00906829 Eh       5.69 kcal/mol
Non-thermal (ZPE) correction              0.24327097 Eh     152.65 kcal/mol
-----------------------------------------------------------------------
Total correction                          0.25233926 Eh     158.34 kcal/mol

--------
ENTHALPY
--------

The enthalpy is H = U + kB*T
                kB is Boltzmann's constant
Total thermal energy              ...    -66.36470324 Eh
Thermal Enthalpy correction       ...      0.00094421 Eh       0.59 kcal/mol
-----------------------------------------------------------------------
Total Enthalpy                    ...    -66.36375903 Eh

Note: Only C1 symmetry has been detected, increase convergence thresholds
      if your molecule has a higher symmetry. Symmetry factor of 1.0 is
      used for the rotational entropy correction.

Note: Rotational entropy computed according to Herzberg
Infrared and Raman Spectra, Chapter V,1, Van Nostrand Reinhold, 1945
Point Group:  C1, Symmetry Number:   1
Rotational constants in cm-1:     0.062419     0.047528     0.041286

Vibrational entropy computed according to the QRRHO of S. Grimme
Chem.Eur.J. 2012 18 9955 using a reference frequency of 100.0 cm-1

-------
ENTROPY
-------

The entropy contributions are T*S = T*(S(el)+S(vib)+S(rot)+S(trans))
     S(el)   - electronic entropy
     S(vib)  - vibrational entropy
     S(rot)  - rotational entropy
     S(trans)- translational entropy
The entropies will be listed as multiplied by the temperature to get
units of energy

                             ****ORCA TERMINATED NORMALLY****
TOTAL RUN TIME: 0 days 0 hours 8 minutes 16 seconds 386 msec
