                         Program Version 6.0.1  -  RELEASE   -
|  1> ! wB97X-3c OPT FREQ TightSCF
|  2> %pal
|  3>   nprocs 40
|  4> end
|  5> * xyz 0 1
|  6> C     -3.609015     0.129015     0.032142
|  7> C     -2.113768     0.454156    -0.057074
|  8> C     -1.484096     0.548121     1.355678
|  9> C      0.039107     0.298350     1.366811
| 10> C      0.685565     0.665891     0.019713
| 11> C      0.114589    -0.207834    -1.138421
| 12> C     -1.374938    -0.586537    -0.916980
| 13> C      0.908714    -1.469874    -1.413545
| 14> C      2.141494    -1.699435    -0.937393
| 15> C      2.855818    -0.776827     0.009043
| 16> C      2.193308     0.571917     0.107944
| 17> C      2.921868     1.648962     0.442774
| 18> H     -4.128071     0.892255     0.650381
| 19> H     -4.063018     0.135931    -0.981721
| 20> H     -3.767159    -0.871927     0.488248
| 21> H     -2.018317     1.445099    -0.555794
| 22> H     -1.958001    -0.187459     2.042824
| 23> H     -1.691365     1.560519     1.766744
| 24> H      0.233298    -0.775718     1.584052
| 25> H      0.497594     0.894215     2.186553
| 26> H      0.412902     1.724333    -0.200520
| 27> H      0.172223     0.405945    -2.064961
| 28> H     -1.873786    -0.683107    -1.906794
| 29> H     -1.450878    -1.574998    -0.408299
| 30> H      0.485573    -2.198097    -2.100395
| 31> H      2.636163    -2.627712    -1.207461
| 32> H      3.902442    -0.665327    -0.349010
| 33> H      2.881063    -1.242986     1.016551
| 34> H      3.996789     1.575659     0.578154
| 35> H      2.453901     2.617472     0.590757
| 36> *
| 37>
| 38>                          ****END OF INPUT****
 Total Charge           Charge          ....    0
 Multiplicity           Mult            ....    1
 Number of Electrons    NEL             ....   66
Dispersion correction           -0.038783892
FINAL SINGLE POINT ENERGY       -79.196926326645
Dispersion correction             ... done (  0.1 sec)
Dispersion correction           -0.039340487
FINAL SINGLE POINT ENERGY       -79.204964129285
Dispersion correction             ... done (  0.1 sec)
Dispersion correction           -0.039550625
FINAL SINGLE POINT ENERGY       -79.206376147309
Dispersion correction             ... done (  0.1 sec)
FINAL SINGLE POINT ENERGY       -79.207022361571
FINAL SINGLE POINT ENERGY       -79.207160195195
FINAL SINGLE POINT ENERGY       -79.207213206755
Dispersion correction             ... done (  0.1 sec)
Dispersion correction           -0.039693269
FINAL SINGLE POINT ENERGY       -79.207225717897
Dispersion correction             ... done (  0.1 sec)
Dispersion correction           -0.039693809
FINAL SINGLE POINT ENERGY       -79.207228701001
Dispersion correction             ... done (  0.1 sec)
                    ***********************HURRAY********************

CARTESIAN COORDINATES (ANGSTROEM)
---------------------------------
  C     -3.569714    0.179972    0.003155
  C     -2.078439    0.452751   -0.033805
  C     -1.473768    0.446838    1.373643
  C      0.023424    0.135420    1.371354
  C      0.673553    0.649334    0.091405
  C      0.133903   -0.145858   -1.112590
  C     -1.334636   -0.545821   -0.903084
  C      0.950714   -1.368971   -1.403182
  C      2.104170   -1.665476   -0.824722
  C      2.775008   -0.766827    0.166745
  C      2.172022    0.603846    0.142350
  C      2.912453    1.702554    0.138785
  H     -4.082097    0.880321    0.663444
  H     -4.015161    0.267626   -0.987893
  H     -3.768374   -0.828065    0.371335
  H     -1.932880    1.446036   -0.469961
  H     -1.996488   -0.292459    1.985150
  H     -1.653553    1.414877    1.845576
  H      0.182533   -0.942340    1.445963
  H      0.505707    0.581479    2.241519
  H      0.383060    1.694839   -0.029336
  H      0.183964    0.507953   -1.988677
  H     -1.825314   -0.655848   -1.872002
  H     -1.383170   -1.528146   -0.423563
  H      0.528803   -2.062691   -2.123007
  H      2.603640   -2.594846   -1.071836
  H      3.843420   -0.709354   -0.041357
  H      2.683560   -1.199724    1.168132
  H      3.993784    1.656894    0.167061
  H      2.459876    2.685688    0.109400

 Multiplicity           Mult            ....    1
 Number of Electrons    NEL             ....   66
 Basis Dimension        Dim             ....  246

ORBITAL ENERGIES
----------------

  NO   OCC          E(Eh)            E(eV)
   0   2.0000      -1.006818       -27.3969
   1   2.0000      -0.958417       -26.0798
   2   2.0000      -0.915102       -24.9012
   3   2.0000      -0.894999       -24.3542
   4   2.0000      -0.871383       -23.7115
   5   2.0000      -0.812171       -22.1003
   6   2.0000      -0.803818       -21.8730
   7   2.0000      -0.745871       -20.2962
   8   2.0000      -0.734591       -19.9892
   9   2.0000      -0.683308       -18.5938
  10   2.0000      -0.662079       -18.0161
  11   2.0000      -0.625984       -17.0339
  12   2.0000      -0.610363       -16.6088
  13   2.0000      -0.588071       -16.0022
  14   2.0000      -0.575354       -15.6562
  15   2.0000      -0.561574       -15.2812
  16   2.0000      -0.540651       -14.7119
  17   2.0000      -0.536899       -14.6098
  18   2.0000      -0.523675       -14.2499
  19   2.0000      -0.511280       -13.9126
  20   2.0000      -0.506135       -13.7726
  21   2.0000      -0.485918       -13.2225
  22   2.0000      -0.482817       -13.1381
  23   2.0000      -0.473239       -12.8775
  24   2.0000      -0.464458       -12.6385
  25   2.0000      -0.450496       -12.2586
  26   2.0000      -0.448041       -12.1918
  27   2.0000      -0.433708       -11.8018
  28   2.0000      -0.408644       -11.1198
  29   2.0000      -0.397702       -10.8220
  30   2.0000      -0.394200       -10.7267
  31   2.0000      -0.343640        -9.3509
  32   2.0000      -0.342775        -9.3274
  33   0.0000       0.084512         2.2997
  34   0.0000       0.086899         2.3646
  35   0.0000       0.098197         2.6721
  36   0.0000       0.098490         2.6801
  37   0.0000       0.106206         2.8900

MULLIKEN ATOMIC CHARGES
-----------------------
   0 C :   -0.044166
   1 C :   -0.096606
   2 C :   -0.027700
   3 C :   -0.018311
   4 C :   -0.096919
   5 C :   -0.069754
   6 C :   -0.026204
   7 C :   -0.011244
   8 C :   -0.024118
   9 C :   -0.051775
  10 C :   -0.046923
  11 C :   -0.025530
  12 H :    0.028026
  13 H :    0.026046
  14 H :    0.024890
  15 H :    0.029172
  16 H :    0.025092
  17 H :    0.031713
  18 H :    0.029646
  19 H :    0.040415
  20 H :    0.027021
  21 H :    0.048833
  22 H :    0.035462
  23 H :    0.025715
  24 H :    0.016792
  25 H :    0.016148
  26 H :    0.043068
  27 H :    0.050431
  28 H :    0.017527
  29 H :    0.023253
Sum of atomic charges:    0.0000000

LOEWDIN ATOMIC CHARGES
----------------------
   0 C :   -0.109803
   1 C :   -0.079387
   2 C :   -0.071347
   3 C :   -0.068757
   4 C :   -0.058138
   5 C :   -0.059443
   6 C :   -0.068439
   7 C :   -0.045498
   8 C :   -0.048541
   9 C :   -0.082138
  10 C :   -0.031244
  11 C :   -0.079839
  12 H :    0.045022
  13 H :    0.043231
  14 H :    0.042484
  15 H :    0.043035
  16 H :    0.044201
  17 H :    0.043231
  18 H :    0.042910
  19 H :    0.046958
  20 H :    0.051037
  21 H :    0.050988
  22 H :    0.045491
  23 H :    0.044520
  24 H :    0.043572
  25 H :    0.040797
  26 H :    0.056498
  27 H :    0.053276
  28 H :    0.032653
  29 H :    0.032672

  Mayer bond orders larger than 0.100000
B(  0-C ,  1-C ) :   1.0186 B(  0-C , 12-H ) :   0.9917 B(  0-C , 13-H ) :   0.9936
B(  0-C , 14-H ) :   0.9902 B(  1-C ,  2-C ) :   0.9738 B(  1-C ,  6-C ) :   0.9770
B(  1-C , 15-H ) :   0.9939 B(  2-C ,  3-C ) :   0.9997 B(  2-C , 16-H ) :   0.9979
B(  2-C , 17-H ) :   1.0006 B(  3-C ,  4-C ) :   0.9586 B(  3-C , 18-H ) :   0.9911
B(  3-C , 19-H ) :   0.9976 B(  4-C ,  5-C ) :   0.9701 B(  4-C , 10-C ) :   1.0709
B(  4-C , 20-H ) :   0.9957 B(  5-C ,  6-C ) :   0.9786 B(  5-C ,  7-C ) :   1.0405
B(  5-C , 21-H ) :   0.9832 B(  6-C , 22-H ) :   1.0019 B(  6-C , 23-H ) :   0.9887
B(  7-C ,  8-C ) :   1.9260 B(  7-C , 24-H ) :   0.9921 B(  8-C ,  9-C ) :   1.0172
B(  8-C , 25-H ) :   0.9898 B(  9-C , 10-C ) :   1.0055 B(  9-C , 26-H ) :   0.9863
B(  9-C , 27-H ) :   0.9661 B( 10-C , 11-C ) :   1.9440 B( 11-C , 28-H ) :   0.9839
B( 11-C , 29-H ) :   0.9841

Dispersion correction           -0.039693454
FINAL SINGLE POINT ENERGY       -79.207229523620

DIPOLE MOMENT
-------------

Method             : SCF
Type of density    : Electron Density
Multiplicity       :   1
Irrep              :   0
Energy             :   -79.1675360699278627 Eh
Relativity type    :
Basis              : AO
                                X                 Y                 Z
Electronic contribution:      8.991369243      -0.952602075      -2.699202614
Nuclear contribution   :     -9.167212214       0.898239052       2.759472342
                        -----------------------------------------
Total Dipole Moment    :     -0.175842971      -0.054363023       0.060269728
                        -----------------------------------------
Magnitude (a.u.)       :      0.193671187
Magnitude (Debye)      :      0.492273037

VIBRATIONAL FREQUENCIES
-----------------------

Scaling factor for frequencies =  1.000000000  (already applied!)

     0:       0.00 cm**-1
     1:       0.00 cm**-1
     2:       0.00 cm**-1
     3:       0.00 cm**-1
     4:       0.00 cm**-1
     5:       0.00 cm**-1
     6:      74.39 cm**-1
     7:     104.66 cm**-1
     8:     135.94 cm**-1
     9:     172.59 cm**-1
    10:     196.33 cm**-1
    11:     251.57 cm**-1
    12:     271.31 cm**-1
    13:     306.37 cm**-1
    14:     337.72 cm**-1
    15:     412.22 cm**-1
    16:     423.36 cm**-1
    17:     447.86 cm**-1
    18:     493.64 cm**-1
    19:     507.99 cm**-1
    20:     572.64 cm**-1
    21:     596.06 cm**-1
    22:     610.39 cm**-1
    23:     717.07 cm**-1
    24:     751.16 cm**-1
    25:     772.67 cm**-1
    26:     811.40 cm**-1
    27:     868.19 cm**-1
    28:     891.20 cm**-1
    29:     926.60 cm**-1
    30:     936.68 cm**-1
    31:     952.45 cm**-1
    32:     961.61 cm**-1
    33:     979.08 cm**-1
    34:    1001.31 cm**-1
    35:    1022.91 cm**-1
    36:    1029.72 cm**-1
    37:    1039.55 cm**-1
    38:    1049.10 cm**-1
    39:    1075.33 cm**-1
    40:    1094.89 cm**-1
    41:    1145.13 cm**-1
    42:    1156.83 cm**-1
    43:    1175.74 cm**-1
    44:    1181.49 cm**-1
    45:    1216.10 cm**-1
    46:    1229.07 cm**-1
    47:    1245.41 cm**-1
    48:    1283.19 cm**-1
    49:    1304.60 cm**-1
    50:    1322.03 cm**-1
    51:    1342.41 cm**-1
    52:    1347.10 cm**-1
    53:    1366.35 cm**-1
    54:    1370.54 cm**-1
    55:    1383.39 cm**-1
    56:    1391.93 cm**-1
    57:    1400.13 cm**-1
    58:    1423.51 cm**-1
    59:    1429.41 cm**-1
    60:    1441.30 cm**-1
    61:    1450.91 cm**-1
    62:    1458.54 cm**-1
    63:    1487.14 cm**-1
    64:    1506.32 cm**-1
    65:    1516.80 cm**-1
    66:    1521.83 cm**-1
    67:    1527.46 cm**-1
    68:    1528.47 cm**-1
    69:    1544.02 cm**-1
    70:    1777.97 cm**-1
    71:    1787.19 cm**-1
    72:    3075.08 cm**-1
    73:    3080.23 cm**-1
    74:    3084.82 cm**-1
    75:    3085.27 cm**-1
    76:    3089.47 cm**-1
    77:    3091.97 cm**-1
    78:    3105.84 cm**-1
    79:    3111.66 cm**-1
    80:    3141.42 cm**-1
    81:    3142.49 cm**-1
    82:    3153.22 cm**-1
    83:    3163.45 cm**-1
    84:    3178.81 cm**-1
    85:    3184.54 cm**-1
    86:    3202.37 cm**-1
    87:    3209.37 cm**-1
    88:    3238.01 cm**-1
    89:    3296.42 cm**-1

IR SPECTRUM
-----------

 Mode   freq       eps      Int      T**2         TX        TY        TZ
       cm**-1   L/(mol*cm) km/mol    a.u.
----------------------------------------------------------------------------
  6:     74.39   0.000017    0.09  0.000072  (-0.007867 -0.000623  0.003063)
  7:    104.66   0.000036    0.18  0.000108  (-0.009914 -0.001531 -0.002750)
  8:    135.94   0.000023    0.12  0.000053  ( 0.004042  0.000103  0.006039)
  9:    172.59   0.000024    0.12  0.000043  (-0.003293  0.002299  0.005162)
 10:    196.33   0.000086    0.43  0.000136  ( 0.006530  0.006438 -0.007234)
 11:    251.57   0.000003    0.02  0.000004  ( 0.000363  0.000530 -0.001877)
 12:    271.31   0.000083    0.42  0.000095  ( 0.002391  0.007421 -0.005844)
 13:    306.37   0.000009    0.04  0.000009  (-0.002374  0.001341 -0.001246)
 14:    337.72   0.000037    0.19  0.000035  (-0.005571 -0.000096  0.001885)
 15:    412.22   0.000111    0.56  0.000084  (-0.008560  0.001820  0.002793)
 16:    423.36   0.000078    0.40  0.000058  (-0.000762 -0.006776  0.003354)
 17:    447.86   0.000016    0.08  0.000011  (-0.000338 -0.003124  0.001018)
 18:    493.64   0.000157    0.79  0.000099  ( 0.002597  0.003046 -0.009112)
 19:    507.99   0.000065    0.33  0.000040  (-0.001571  0.004646  0.003982)
 20:    572.64   0.000607    3.07  0.000331  (-0.007882  0.001557  0.016310)
 21:    596.06   0.000033    0.17  0.000017  ( 0.000161 -0.004119  0.000368)
 22:    610.39   0.002798   14.14  0.001430  ( 0.010939  0.005630 -0.035761)
 23:    717.07   0.002980   15.06  0.001297  (-0.018785 -0.019126  0.024042)
 24:    751.16   0.000567    2.86  0.000235  (-0.007335 -0.004072  0.012846)
 25:    772.67   0.001796    9.08  0.000725  (-0.011279 -0.014083  0.019994)
 26:    811.40   0.000409    2.07  0.000157  ( 0.008112 -0.007887 -0.005408)
 27:    868.19   0.000816    4.12  0.000293  ( 0.009407 -0.002584  0.014070)
 28:    891.20   0.000309    1.56  0.000108  ( 0.005860 -0.003592  0.007810)
 29:    926.60   0.003163   15.98  0.001065  (-0.010577  0.001371  0.030846)
 30:    936.68   0.006241   31.54  0.002079  (-0.002651 -0.000196 -0.045521)
 31:    952.45   0.000450    2.28  0.000148  ( 0.001739  0.001308  0.011949)
 32:    961.61   0.000066    0.33  0.000021  (-0.001544 -0.001065  0.004225)
 33:    979.08   0.000188    0.95  0.000060  (-0.002194  0.007419 -0.000095)
 34:   1001.31   0.000250    1.26  0.000078  (-0.002347  0.002269  0.008203)
 35:   1022.91   0.000140    0.71  0.000043  (-0.005150 -0.001217 -0.003838)
 36:   1029.72   0.000400    2.02  0.000121  (-0.009524  0.003296 -0.004436)
 37:   1039.55   0.001372    6.93  0.000412  (-0.015515  0.003364 -0.012641)
 38:   1049.10   0.000469    2.37  0.000139  (-0.011284 -0.003172 -0.001442)
 39:   1075.33   0.000813    4.11  0.000236  (-0.013058  0.003802  0.007146)
 40:   1094.89   0.000008    0.04  0.000002  ( 0.000914 -0.000959 -0.000731)
 41:   1145.13   0.000028    0.14  0.000008  (-0.001837 -0.000411 -0.002038)
 42:   1156.83   0.000329    1.66  0.000089  (-0.008673 -0.002603  0.002592)
 43:   1175.74   0.000321    1.62  0.000085  ( 0.006201 -0.003880  0.005626)
 44:   1181.49   0.000037    0.19  0.000010  (-0.002435  0.001325  0.001480)
 45:   1216.10   0.000139    0.70  0.000036  (-0.002489 -0.004248 -0.003388)
 46:   1229.07   0.000406    2.05  0.000103  ( 0.009094  0.004342 -0.001250)
 47:   1245.41   0.000160    0.81  0.000040  (-0.002822 -0.005484 -0.001452)
 48:   1283.19   0.000118    0.60  0.000029  ( 0.000049  0.001723 -0.005081)
 49:   1304.60   0.000495    2.50  0.000118  ( 0.007688  0.004850 -0.005975)
 50:   1322.03   0.000085    0.43  0.000020  ( 0.002168  0.003903  0.000243)
 51:   1342.41   0.000135    0.68  0.000031  (-0.004344  0.001858 -0.003024)
 52:   1347.10   0.000177    0.90  0.000041  (-0.005525 -0.000504 -0.003213)
 53:   1366.35   0.000094    0.47  0.000021  (-0.004295 -0.000141  0.001723)
 54:   1370.54   0.000075    0.38  0.000017  (-0.000529 -0.004032 -0.000707)
 55:   1383.39   0.000026    0.13  0.000006  ( 0.000731  0.000728  0.002182)
 56:   1391.93   0.000039    0.20  0.000009  ( 0.002785  0.000013 -0.001033)
 57:   1400.13   0.001090    5.51  0.000243  ( 0.014306 -0.006038 -0.001316)
 58:   1423.51   0.000430    2.17  0.000094  ( 0.005014 -0.000711 -0.008280)
 59:   1429.41   0.000038    0.19  0.000008  ( 0.002568 -0.000931 -0.000861)
 60:   1441.30   0.000463    2.34  0.000100  (-0.007693 -0.006373  0.000587)
 61:   1450.91   0.001043    5.27  0.000224  ( 0.014813  0.002211 -0.000066)
 62:   1458.54   0.000351    1.78  0.000075  (-0.000234 -0.008656  0.000462)
 63:   1487.14   0.001109    5.61  0.000233  (-0.004722  0.012919 -0.006601)
 64:   1506.32   0.003015   15.24  0.000625  (-0.021819 -0.000704 -0.012171)
 65:   1516.80   0.000446    2.26  0.000092  (-0.003984  0.008379  0.002399)
 66:   1521.83   0.000314    1.59  0.000064  (-0.001713 -0.007713 -0.001397)
 67:   1527.46   0.001476    7.46  0.000301  ( 0.004281 -0.016361  0.003930)
 68:   1528.47   0.001864    9.42  0.000381  ( 0.000851  0.004182  0.019035)
 69:   1544.02   0.001740    8.79  0.000352  (-0.001942 -0.015237  0.010760)
 70:   1777.97   0.004988   25.21  0.000875  ( 0.018999  0.022561 -0.002348)
 71:   1787.19   0.003052   15.43  0.000533  (-0.007968 -0.021165 -0.004642)
 72:   3075.08   0.002591   13.09  0.000263  (-0.003237 -0.005401  0.014942)
 73:   3080.23   0.001245    6.29  0.000126  (-0.003510 -0.006666  0.008332)
 74:   3084.82   0.004516   22.82  0.000457  (-0.011136  0.008188 -0.016302)
 75:   3085.27   0.004934   24.93  0.000499  (-0.007847 -0.020770 -0.002468)
 76:   3089.47   0.003906   19.74  0.000395  (-0.011621 -0.011074 -0.011698)
 77:   3091.97   0.012841   64.89  0.001296  ( 0.034132 -0.002725 -0.011116)
 78:   3105.84   0.002780   14.05  0.000279  (-0.004679  0.004267  0.015466)
 79:   3111.66   0.007900   39.93  0.000792  ( 0.007239 -0.022216  0.015695)
 80:   3141.42   0.001392    7.03  0.000138  ( 0.005392  0.009897  0.003352)
 81:   3142.49   0.007561   38.21  0.000751  ( 0.008156 -0.009798  0.024255)
 82:   3153.22   0.002695   13.62  0.000267  (-0.015724  0.001757  0.004045)
 83:   3163.45   0.006101   30.83  0.000602  (-0.003892 -0.022592 -0.008737)
 84:   3178.81   0.005686   28.73  0.000558  ( 0.006768 -0.022240  0.004214)
 85:   3184.54   0.004132   20.88  0.000405  (-0.000785 -0.001515 -0.020050)
 86:   3202.37   0.001893    9.57  0.000184  (-0.008412 -0.010622 -0.000950)
 87:   3209.37   0.001616    8.17  0.000157  ( 0.007700  0.002863  0.009468)
 88:   3238.01   0.004964   25.09  0.000478  (-0.004787  0.018825  0.010057)
 89:   3296.42   0.001364    6.89  0.000129  (-0.009669  0.005970  0.000137)

--------------------------
THERMOCHEMISTRY AT 298.15K
--------------------------

Temperature         ...   298.15 K
Pressure            ...     1.00 atm
Total Mass          ...   162.28 AMU
Quasi RRHO          ...     True
Cut-Off Frequency   ...     1.00 cm^-1

Throughout the following assumptions are being made:
  (1) The electronic state is orbitally nondegenerate
  (2) There are no thermally accessible electronically excited states
  (3) Hindered rotations indicated by low frequency modes are not
      treated as such but are treated as vibrations and this may
      cause some error
  (4) All equations used are the standard statistical mechanics
      equations for an ideal gas
  (5) All vibrations are strictly harmonic

freq.      74.39  E(vib)   ...       0.49
freq.     104.66  E(vib)   ...       0.46
freq.     135.94  E(vib)   ...       0.42
freq.     172.59  E(vib)   ...       0.38
freq.     196.33  E(vib)   ...       0.36
freq.     251.57  E(vib)   ...       0.30
freq.     271.31  E(vib)   ...       0.29
freq.     306.37  E(vib)   ...       0.26
freq.     337.72  E(vib)   ...       0.24
freq.     412.22  E(vib)   ...       0.19
freq.     423.36  E(vib)   ...       0.18
freq.     447.86  E(vib)   ...       0.17
freq.     493.64  E(vib)   ...       0.14
freq.     507.99  E(vib)   ...       0.14
freq.     572.64  E(vib)   ...       0.11
freq.     596.06  E(vib)   ...       0.10
freq.     610.39  E(vib)   ...       0.10
freq.     717.07  E(vib)   ...       0.07
freq.     751.16  E(vib)   ...       0.06
freq.     772.67  E(vib)   ...       0.05
freq.     811.40  E(vib)   ...       0.05
freq.     868.19  E(vib)   ...       0.04
freq.     891.20  E(vib)   ...       0.04
freq.     926.60  E(vib)   ...       0.03
freq.     936.68  E(vib)   ...       0.03
freq.     952.45  E(vib)   ...       0.03
freq.     961.61  E(vib)   ...       0.03
freq.     979.08  E(vib)   ...       0.03
freq.    1001.31  E(vib)   ...       0.02
freq.    1022.91  E(vib)   ...       0.02
freq.    1029.72  E(vib)   ...       0.02
freq.    1039.55  E(vib)   ...       0.02
freq.    1049.10  E(vib)   ...       0.02
freq.    1075.33  E(vib)   ...       0.02
freq.    1094.89  E(vib)   ...       0.02
freq.    1145.13  E(vib)   ...       0.01
freq.    1156.83  E(vib)   ...       0.01
freq.    1175.74  E(vib)   ...       0.01
freq.    1181.49  E(vib)   ...       0.01
freq.    1216.10  E(vib)   ...       0.01
freq.    1229.07  E(vib)   ...       0.01
freq.    1245.41  E(vib)   ...       0.01
freq.    1283.19  E(vib)   ...       0.01
freq.    1304.60  E(vib)   ...       0.01
freq.    1322.03  E(vib)   ...       0.01
freq.    1342.41  E(vib)   ...       0.01
freq.    1347.10  E(vib)   ...       0.01
freq.    1366.35  E(vib)   ...       0.01
freq.    1370.54  E(vib)   ...       0.01
freq.    1383.39  E(vib)   ...       0.00
freq.    1391.93  E(vib)   ...       0.00
freq.    1400.13  E(vib)   ...       0.00
freq.    1423.51  E(vib)   ...       0.00
freq.    1429.41  E(vib)   ...       0.00
freq.    1441.30  E(vib)   ...       0.00
freq.    1450.91  E(vib)   ...       0.00
freq.    1458.54  E(vib)   ...       0.00
freq.    1487.14  E(vib)   ...       0.00
freq.    1506.32  E(vib)   ...       0.00
freq.    1516.80  E(vib)   ...       0.00
freq.    1521.83  E(vib)   ...       0.00
freq.    1527.46  E(vib)   ...       0.00
freq.    1528.47  E(vib)   ...       0.00
freq.    1544.02  E(vib)   ...       0.00
freq.    1777.97  E(vib)   ...       0.00
freq.    1787.19  E(vib)   ...       0.00
freq.    3075.08  E(vib)   ...       0.00
freq.    3080.23  E(vib)   ...       0.00
freq.    3084.82  E(vib)   ...       0.00
freq.    3085.27  E(vib)   ...       0.00
freq.    3089.47  E(vib)   ...       0.00
freq.    3091.97  E(vib)   ...       0.00
freq.    3105.84  E(vib)   ...       0.00
freq.    3111.66  E(vib)   ...       0.00
freq.    3141.42  E(vib)   ...       0.00
freq.    3142.49  E(vib)   ...       0.00
freq.    3153.22  E(vib)   ...       0.00
freq.    3163.45  E(vib)   ...       0.00
freq.    3178.81  E(vib)   ...       0.00
freq.    3184.54  E(vib)   ...       0.00
freq.    3202.37  E(vib)   ...       0.00
freq.    3209.37  E(vib)   ...       0.00
freq.    3238.01  E(vib)   ...       0.00
freq.    3296.42  E(vib)   ...       0.00

------------
INNER ENERGY
------------

The inner energy is: U= E(el) + E(ZPE) + E(vib) + E(rot) + E(trans)
    E(el)   - is the total energy from the electronic structure calculation
              = E(kin-el) + E(nuc-el) + E(el-el) + E(nuc-nuc)
    E(ZPE)  - the the zero temperature vibrational energy from the frequency calculation
    E(vib)  - the the finite temperature correction to E(ZPE) due to population
              of excited vibrational states
    E(rot)  - is the rotational thermal energy
    E(trans)- is the translational thermal energy

Summary of contributions to the inner energy U:
Electronic energy                ...    -79.20722952 Eh
Zero point energy                ...      0.27951445 Eh     175.40 kcal/mol
Thermal vibrational correction   ...      0.00806850 Eh       5.06 kcal/mol
Thermal rotational correction    ...      0.00141627 Eh       0.89 kcal/mol
Thermal translational correction ...      0.00141627 Eh       0.89 kcal/mol
-----------------------------------------------------------------------
Total thermal energy                    -78.91681403 Eh

Summary of corrections to the electronic energy:
(perhaps to be used in another calculation)
Total thermal correction                  0.01090104 Eh       6.84 kcal/mol
Non-thermal (ZPE) correction              0.27951445 Eh     175.40 kcal/mol
-----------------------------------------------------------------------
Total correction                          0.29041550 Eh     182.24 kcal/mol

--------
ENTHALPY
--------

The enthalpy is H = U + kB*T
                kB is Boltzmann's constant
Total thermal energy              ...    -78.91681403 Eh
Thermal Enthalpy correction       ...      0.00094421 Eh       0.59 kcal/mol
-----------------------------------------------------------------------
Total Enthalpy                    ...    -78.91586982 Eh

Note: Only C1 symmetry has been detected, increase convergence thresholds
      if your molecule has a higher symmetry. Symmetry factor of 1.0 is
      used for the rotational entropy correction.

Note: Rotational entropy computed according to Herzberg
Infrared and Raman Spectra, Chapter V,1, Van Nostrand Reinhold, 1945
Point Group:  C1, Symmetry Number:   1
Rotational constants in cm-1:     0.059706     0.022267     0.018899

Vibrational entropy computed according to the QRRHO of S. Grimme
Chem.Eur.J. 2012 18 9955 using a reference frequency of 100.0 cm-1

                             ****ORCA TERMINATED NORMALLY****
TOTAL RUN TIME: 0 days 0 hours 13 minutes 49 seconds 386 msec
