                         Program Version 6.0.1  -  RELEASE   -
|  1> ! wB97X-3c OPT FREQ TightSCF
|  2> %pal
|  3>   nprocs 40
|  4> end
|  5> * xyz 0 1
|  6> C     -1.125975    -1.615095    -0.509272
|  7> C     -1.624374    -0.562111     0.493887
|  8> C     -2.953196     0.039958     0.005746
|  9> C     -0.581140     0.553069     0.813640
| 10> C      0.660623     0.049614     1.595167
| 11> C      1.815251    -0.438008     0.706930
| 12> C      2.083133     0.505997    -0.434215
| 13> C      3.280500     0.514750    -1.025096
| 14> C      0.996276     1.348846    -0.966656
| 15> C     -0.211035     1.381134    -0.398748
| 16> H     -0.662161    -1.140003    -1.398814
| 17> H     -0.400440    -2.295467    -0.022875
| 18> H     -1.968160    -2.252628    -0.853944
| 19> H     -1.854535    -1.093614     1.444314
| 20> H     -3.313277     0.816085     0.714123
| 21> H     -2.838431     0.493693    -1.001385
| 22> H     -3.731226    -0.751011    -0.054007
| 23> H     -1.091629     1.255118     1.510678
| 24> H      0.374021    -0.756806     2.304231
| 25> H      1.046363     0.892464     2.211584
| 26> H      2.723370    -0.532702     1.342729
| 27> H      1.603572    -1.444121     0.298679
| 28> H      3.482633     1.161944    -1.869835
| 29> H      4.078584    -0.127158    -0.672935
| 30> H      1.177859     1.973073    -1.834020
| 31> H     -0.966606     2.022982    -0.834480
| 32> *
| 33>
| 34>                          ****END OF INPUT****
 Total Charge           Charge          ....    0
 Multiplicity           Mult            ....    1
 Number of Electrons    NEL             ....   56
Dispersion correction           -0.031066300
FINAL SINGLE POINT ENERGY       -66.597455138518
Dispersion correction             ... done (  0.1 sec)
Dispersion correction           -0.031530106
FINAL SINGLE POINT ENERGY       -66.603479857161
Dispersion correction             ... done (  0.1 sec)
Dispersion correction           -0.031473799
FINAL SINGLE POINT ENERGY       -66.604229122174
Dispersion correction             ... done (  0.1 sec)
FINAL SINGLE POINT ENERGY       -66.604639880200
FINAL SINGLE POINT ENERGY       -66.604811694073
FINAL SINGLE POINT ENERGY       -66.604909760096
Dispersion correction             ... done (  0.1 sec)
Dispersion correction           -0.031390168
FINAL SINGLE POINT ENERGY       -66.604943211603
Dispersion correction             ... done (  0.1 sec)
Dispersion correction           -0.031397662
FINAL SINGLE POINT ENERGY       -66.604949187284
Dispersion correction             ... done (  0.1 sec)
                    ***********************HURRAY********************

CARTESIAN COORDINATES (ANGSTROEM)
---------------------------------
  C     -1.239675   -1.703023   -0.346414
  C     -1.663902   -0.543071    0.539067
  C     -2.934704    0.095117   -0.002104
  C     -0.561637    0.508172    0.772847
  C      0.683118   -0.028812    1.483508
  C      1.782695   -0.507794    0.546393
  C      2.147489    0.543881   -0.456493
  C      3.394063    0.758076   -0.864837
  C      1.024662    1.312238   -0.991148
  C     -0.195198    1.271497   -0.463866
  H     -0.863363   -1.347860   -1.306610
  H     -0.465497   -2.309703    0.118758
  H     -2.088452   -2.358174   -0.543427
  H     -1.899239   -0.947774    1.528484
  H     -3.232407    0.962200    0.588651
  H     -2.810170    0.418461   -1.035753
  H     -3.758301   -0.618247    0.016413
  H     -1.017075    1.239374    1.449147
  H      0.399679   -0.830066    2.168254
  H      1.095716    0.772596    2.099578
  H      2.662316   -0.801747    1.118412
  H      1.454131   -1.391231   -0.001058
  H      3.617949    1.503321   -1.617278
  H      4.225489    0.195157   -0.461219
  H      1.218573    1.941685   -1.851423
  H     -0.976261    1.865732   -0.922460

 Multiplicity           Mult            ....    1
 Number of Electrons    NEL             ....   56
 Basis Dimension        Dim             ....  210

ORBITAL ENERGIES
----------------

  NO   OCC          E(Eh)            E(eV)
   0   2.0000      -0.995804       -27.0972
   1   2.0000      -0.946993       -25.7690
   2   2.0000      -0.889649       -24.2086
   3   2.0000      -0.886929       -24.1346
   4   2.0000      -0.820481       -22.3264
   5   2.0000      -0.808956       -22.0128
   6   2.0000      -0.740155       -20.1407
   7   2.0000      -0.720830       -19.6148
   8   2.0000      -0.681475       -18.5439
   9   2.0000      -0.614715       -16.7272
  10   2.0000      -0.606784       -16.5114
  11   2.0000      -0.588653       -16.0181
  12   2.0000      -0.569184       -15.4883
  13   2.0000      -0.555473       -15.1152
  14   2.0000      -0.538895       -14.6641
  15   2.0000      -0.519288       -14.1305
  16   2.0000      -0.512560       -13.9475
  17   2.0000      -0.497925       -13.5492
  18   2.0000      -0.491338       -13.3700
  19   2.0000      -0.482042       -13.1170
  20   2.0000      -0.476959       -12.9787
  21   2.0000      -0.456231       -12.4147
  22   2.0000      -0.442758       -12.0481
  23   2.0000      -0.431783       -11.7494
  24   2.0000      -0.414323       -11.2743
  25   2.0000      -0.405247       -11.0273
  26   2.0000      -0.390991       -10.6394
  27   2.0000      -0.317406        -8.6371
  28   0.0000       0.055581         1.5124
  29   0.0000       0.088716         2.4141
  30   0.0000       0.099589         2.7100
  31   0.0000       0.101715         2.7678
  32   0.0000       0.106487         2.8977

MULLIKEN ATOMIC CHARGES
-----------------------
   0 C :   -0.034219
   1 C :   -0.084355
   2 C :   -0.044625
   3 C :   -0.118522
   4 C :   -0.021754
   5 C :   -0.043616
   6 C :   -0.071583
   7 C :   -0.026412
   8 C :   -0.013236
   9 C :   -0.002619
  10 H :    0.037885
  11 H :    0.022829
  12 H :    0.027204
  13 H :    0.028700
  14 H :    0.025127
  15 H :    0.025459
  16 H :    0.030715
  17 H :    0.047296
  18 H :    0.027980
  19 H :    0.039382
  20 H :    0.034967
  21 H :    0.040729
  22 H :    0.023733
  23 H :    0.021085
  24 H :    0.011140
  25 H :    0.016708
Sum of atomic charges:    0.0000000

LOEWDIN ATOMIC CHARGES
----------------------
   0 C :   -0.106423
   1 C :   -0.077693
   2 C :   -0.109445
   3 C :   -0.072298
   4 C :   -0.067626
   5 C :   -0.071921
   6 C :   -0.055571
   7 C :   -0.071645
   8 C :   -0.048287
   9 C :   -0.028851
  10 H :    0.044088
  11 H :    0.038963
  12 H :    0.045214
  13 H :    0.046213
  14 H :    0.042948
  15 H :    0.041440
  16 H :    0.044932
  17 H :    0.056022
  18 H :    0.045789
  19 H :    0.049928
  20 H :    0.051740
  21 H :    0.046801
  22 H :    0.033788
  23 H :    0.033346
  24 H :    0.047074
  25 H :    0.041476

  Mayer bond orders larger than 0.100000
B(  0-C ,  1-C ) :   0.9901 B(  0-C , 10-H ) :   0.9863 B(  0-C , 11-H ) :   0.9951
B(  0-C , 12-H ) :   0.9953 B(  1-C ,  2-C ) :   1.0013 B(  1-C ,  3-C ) :   0.9781
B(  1-C , 13-H ) :   0.9976 B(  2-C , 14-H ) :   0.9950 B(  2-C , 15-H ) :   0.9899
B(  2-C , 16-H ) :   0.9954 B(  3-C ,  4-C ) :   0.9974 B(  3-C ,  9-C ) :   1.0260
B(  3-C , 17-H ) :   0.9896 B(  4-C ,  5-C ) :   0.9798 B(  4-C , 18-H ) :   0.9975
B(  4-C , 19-H ) :   0.9941 B(  5-C ,  6-C ) :   1.0187 B(  5-C , 20-H ) :   0.9946
B(  5-C , 21-H ) :   0.9768 B(  6-C ,  7-C ) :   1.8732 B(  6-C ,  8-C ) :   1.1381
B(  7-C , 22-H ) :   0.9864 B(  7-C , 23-H ) :   0.9866 B(  8-C ,  9-C ) :   1.8550
B(  8-C , 24-H ) :   0.9858 B(  9-C , 25-H ) :   0.9927

Dispersion correction           -0.031398629
FINAL SINGLE POINT ENERGY       -66.604950191083

DIPOLE MOMENT
-------------

Method             : SCF
Type of density    : Electron Density
Multiplicity       :   1
Irrep              :   0
Energy             :   -66.5735515618285945 Eh
Relativity type    :
Basis              : AO
                                X                 Y                 Z
Electronic contribution:      6.761968304       4.781246078      -0.907493644
Nuclear contribution   :     -7.012324254      -4.909898452       1.108234540
                        -----------------------------------------
Total Dipole Moment    :     -0.250355950      -0.128652374       0.200740895
                        -----------------------------------------
Magnitude (a.u.)       :      0.345725964
Magnitude (Debye)      :      0.878765563

VIBRATIONAL FREQUENCIES
-----------------------

Scaling factor for frequencies =  1.000000000  (already applied!)

     0:       0.00 cm**-1
     1:       0.00 cm**-1
     2:       0.00 cm**-1
     3:       0.00 cm**-1
     4:       0.00 cm**-1
     5:       0.00 cm**-1
     6:      63.28 cm**-1
     7:      76.17 cm**-1
     8:     185.25 cm**-1
     9:     189.89 cm**-1
    10:     250.13 cm**-1
    11:     261.42 cm**-1
    12:     284.70 cm**-1
    13:     343.16 cm**-1
    14:     362.08 cm**-1
    15:     387.68 cm**-1
    16:     418.17 cm**-1
    17:     459.04 cm**-1
    18:     513.71 cm**-1
    19:     572.64 cm**-1
    20:     650.94 cm**-1
    21:     715.39 cm**-1
    22:     743.05 cm**-1
    23:     792.19 cm**-1
    24:     803.65 cm**-1
    25:     852.74 cm**-1
    26:     908.58 cm**-1
    27:     933.90 cm**-1
    28:     953.42 cm**-1
    29:     957.35 cm**-1
    30:     986.26 cm**-1
    31:     995.44 cm**-1
    32:    1019.56 cm**-1
    33:    1031.44 cm**-1
    34:    1037.69 cm**-1
    35:    1075.29 cm**-1
    36:    1128.47 cm**-1
    37:    1147.59 cm**-1
    38:    1191.91 cm**-1
    39:    1207.03 cm**-1
    40:    1228.50 cm**-1
    41:    1259.08 cm**-1
    42:    1291.11 cm**-1
    43:    1348.82 cm**-1
    44:    1354.36 cm**-1
    45:    1366.02 cm**-1
    46:    1399.73 cm**-1
    47:    1409.29 cm**-1
    48:    1414.92 cm**-1
    49:    1427.04 cm**-1
    50:    1444.13 cm**-1
    51:    1454.65 cm**-1
    52:    1459.92 cm**-1
    53:    1490.46 cm**-1
    54:    1507.90 cm**-1
    55:    1519.66 cm**-1
    56:    1521.24 cm**-1
    57:    1526.73 cm**-1
    58:    1539.00 cm**-1
    59:    1545.39 cm**-1
    60:    1728.97 cm**-1
    61:    1787.08 cm**-1
    62:    3067.67 cm**-1
    63:    3081.48 cm**-1
    64:    3095.07 cm**-1
    65:    3099.63 cm**-1
    66:    3101.31 cm**-1
    67:    3123.31 cm**-1
    68:    3151.37 cm**-1
    69:    3176.72 cm**-1
    70:    3182.49 cm**-1
    71:    3184.90 cm**-1
    72:    3187.47 cm**-1
    73:    3201.61 cm**-1
    74:    3207.44 cm**-1
    75:    3224.05 cm**-1
    76:    3246.15 cm**-1
    77:    3303.67 cm**-1

IR SPECTRUM
-----------

 Mode   freq       eps      Int      T**2         TX        TY        TZ
       cm**-1   L/(mol*cm) km/mol    a.u.
----------------------------------------------------------------------------
  6:     63.28   0.000005    0.02  0.000024  (-0.002556  0.004123  0.000877)
  7:     76.17   0.000005    0.03  0.000023  (-0.004431 -0.000044  0.001701)
  8:    185.25   0.000006    0.03  0.000011  ( 0.001783  0.000625  0.002654)
  9:    189.89   0.000028    0.14  0.000046  ( 0.001801  0.006516  0.000675)
 10:    250.13   0.000018    0.09  0.000022  (-0.004478 -0.000846 -0.001257)
 11:    261.42   0.000055    0.28  0.000065  (-0.002256 -0.006791 -0.003779)
 12:    284.70   0.000002    0.01  0.000003  ( 0.000067  0.000009 -0.001626)
 13:    343.16   0.000223    1.13  0.000203  ( 0.008644  0.006935  0.008940)
 14:    362.08   0.000423    2.14  0.000364  ( 0.010954  0.009736  0.012231)
 15:    387.68   0.000302    1.53  0.000243  (-0.014778 -0.001681 -0.004692)
 16:    418.17   0.000367    1.86  0.000274  ( 0.001475 -0.013367 -0.009654)
 17:    459.04   0.000986    4.98  0.000671  ( 0.018472  0.017402  0.005145)
 18:    513.71   0.000707    3.57  0.000430  (-0.013849 -0.014910 -0.003934)
 19:    572.64   0.001525    7.71  0.000831  (-0.000555  0.021219  0.019505)
 20:    650.94   0.000503    2.54  0.000241  (-0.006026  0.003930  0.013757)
 21:    715.39   0.001170    5.91  0.000510  (-0.001102 -0.015560 -0.016342)
 22:    743.05   0.000280    1.42  0.000118  (-0.005761 -0.006653 -0.006339)
 23:    792.19   0.000339    1.71  0.000134  (-0.006250  0.007037  0.006706)
 24:    803.65   0.000322    1.63  0.000125  (-0.006616  0.006162  0.006580)
 25:    852.74   0.002577   13.03  0.000943  (-0.012986 -0.026256 -0.009232)
 26:    908.58   0.000340    1.72  0.000117  ( 0.010660 -0.001680 -0.000512)
 27:    933.90   0.009816   49.61  0.003280  ( 0.009015  0.041754  0.038149)
 28:    953.42   0.000270    1.37  0.000088  ( 0.003785 -0.007666 -0.003913)
 29:    957.35   0.000925    4.68  0.000302  ( 0.010938 -0.002038  0.013335)
 30:    986.26   0.000400    2.02  0.000127  (-0.005848  0.002978  0.009140)
 31:    995.44   0.000513    2.59  0.000161  (-0.012054 -0.003910 -0.000375)
 32:   1019.56   0.001266    6.40  0.000388  ( 0.015862  0.010427  0.005221)
 33:   1031.44   0.000119    0.60  0.000036  (-0.001518 -0.003626  0.004535)
 34:   1037.69   0.000232    1.17  0.000070  (-0.007510  0.002206  0.002902)
 35:   1075.29   0.000526    2.66  0.000153  ( 0.004529  0.009808  0.005992)
 36:   1128.47   0.000028    0.14  0.000008  (-0.001549  0.000877  0.002122)
 37:   1147.59   0.002018   10.20  0.000549  (-0.022302 -0.007121 -0.000773)
 38:   1191.91   0.000571    2.89  0.000150  ( 0.009015  0.008167 -0.001276)
 39:   1207.03   0.000784    3.96  0.000203  ( 0.007494  0.010522 -0.005978)
 40:   1228.50   0.000564    2.85  0.000143  ( 0.011609  0.002695 -0.001123)
 41:   1259.08   0.000231    1.17  0.000057  ( 0.003642  0.000399  0.006614)
 42:   1291.11   0.000546    2.76  0.000132  (-0.010882 -0.002913 -0.002264)
 43:   1348.82   0.000027    0.14  0.000006  (-0.001472  0.001786 -0.000973)
 44:   1354.36   0.000016    0.08  0.000004  (-0.000242  0.000973  0.001639)
 45:   1366.02   0.000284    1.43  0.000065  ( 0.005113  0.003710 -0.004986)
 46:   1399.73   0.000121    0.61  0.000027  ( 0.003417  0.000200 -0.003912)
 47:   1409.29   0.000192    0.97  0.000043  ( 0.002482  0.004979  0.003415)
 48:   1414.92   0.000150    0.76  0.000033  ( 0.005188  0.002421 -0.000542)
 49:   1427.04   0.000417    2.11  0.000091  ( 0.008559  0.002551 -0.003377)
 50:   1444.13   0.003129   15.81  0.000676  ( 0.020440 -0.016074 -0.000101)
 51:   1454.65   0.001962    9.92  0.000421  (-0.010251 -0.010908 -0.014031)
 52:   1459.92   0.001164    5.88  0.000249  ( 0.014490  0.004276  0.004542)
 53:   1490.46   0.000404    2.04  0.000085  ( 0.006260  0.006006 -0.003056)
 54:   1507.90   0.001249    6.31  0.000259  ( 0.013160 -0.008013 -0.004600)
 55:   1519.66   0.000884    4.47  0.000182  ( 0.005074  0.001550  0.012384)
 56:   1521.24   0.001633    8.25  0.000335  (-0.012238  0.004576  0.012814)
 57:   1526.73   0.001411    7.13  0.000288  ( 0.008143 -0.006248  0.013532)
 58:   1539.00   0.001777    8.98  0.000360  (-0.004653 -0.000892 -0.018382)
 59:   1545.39   0.003346   16.91  0.000676  ( 0.010673  0.022081 -0.008610)
 60:   1728.97   0.002512   12.70  0.000453  ( 0.021046  0.002950 -0.001347)
 61:   1787.08   0.003838   19.40  0.000670  ( 0.022226  0.007994 -0.010600)
 62:   3067.67   0.002992   15.12  0.000304  ( 0.009120 -0.014870  0.000243)
 63:   3081.48   0.005098   25.76  0.000516  ( 0.008717  0.003128 -0.020749)
 64:   3095.07   0.006704   33.88  0.000676  ( 0.021402 -0.014720  0.001090)
 65:   3099.63   0.007055   35.65  0.000710  ( 0.008258  0.014239  0.020960)
 66:   3101.31   0.007088   35.82  0.000713  ( 0.010058  0.000284 -0.024739)
 67:   3123.31   0.003483   17.60  0.000348  ( 0.010760 -0.014544  0.004547)
 68:   3151.37   0.004738   23.95  0.000469  (-0.004878 -0.019709  0.007548)
 69:   3176.72   0.004703   23.77  0.000462  ( 0.017456  0.005638  0.011205)
 70:   3182.49   0.001314    6.64  0.000129  (-0.007846 -0.002977  0.007644)
 71:   3184.90   0.004715   23.83  0.000462  ( 0.004938  0.016855  0.012390)
 72:   3187.47   0.006687   33.79  0.000655  ( 0.018288  0.011380 -0.013811)
 73:   3201.61   0.003149   15.91  0.000307  (-0.008867  0.009849 -0.011458)
 74:   3207.44   0.001221    6.17  0.000119  (-0.010187 -0.001498  0.003580)
 75:   3224.05   0.000399    2.02  0.000039  (-0.005645  0.000042  0.002596)
 76:   3246.15   0.003647   18.43  0.000351  ( 0.006131 -0.012985  0.012014)
 77:   3303.67   0.000973    4.92  0.000092  (-0.001819  0.006835 -0.006472)

--------------------------
THERMOCHEMISTRY AT 298.15K
--------------------------

Temperature         ...   298.15 K
Pressure            ...     1.00 atm
Total Mass          ...   136.24 AMU
Quasi RRHO          ...     True
Cut-Off Frequency   ...     1.00 cm^-1

Throughout the following assumptions are being made:
  (1) The electronic state is orbitally nondegenerate
  (2) There are no thermally accessible electronically excited states
  (3) Hindered rotations indicated by low frequency modes are not
      treated as such but are treated as vibrations and this may
      cause some error
  (4) All equations used are the standard statistical mechanics
      equations for an ideal gas
  (5) All vibrations are strictly harmonic

freq.      63.28  E(vib)   ...       0.51
freq.      76.17  E(vib)   ...       0.49
freq.     185.25  E(vib)   ...       0.37
freq.     189.89  E(vib)   ...       0.36
freq.     250.13  E(vib)   ...       0.31
freq.     261.42  E(vib)   ...       0.30
freq.     284.70  E(vib)   ...       0.28
freq.     343.16  E(vib)   ...       0.23
freq.     362.08  E(vib)   ...       0.22
freq.     387.68  E(vib)   ...       0.20
freq.     418.17  E(vib)   ...       0.18
freq.     459.04  E(vib)   ...       0.16
freq.     513.71  E(vib)   ...       0.13
freq.     572.64  E(vib)   ...       0.11
freq.     650.94  E(vib)   ...       0.08
freq.     715.39  E(vib)   ...       0.07
freq.     743.05  E(vib)   ...       0.06
freq.     792.19  E(vib)   ...       0.05
freq.     803.65  E(vib)   ...       0.05
freq.     852.74  E(vib)   ...       0.04
freq.     908.58  E(vib)   ...       0.03
freq.     933.90  E(vib)   ...       0.03
freq.     953.42  E(vib)   ...       0.03
freq.     957.35  E(vib)   ...       0.03
freq.     986.26  E(vib)   ...       0.02
freq.     995.44  E(vib)   ...       0.02
freq.    1019.56  E(vib)   ...       0.02
freq.    1031.44  E(vib)   ...       0.02
freq.    1037.69  E(vib)   ...       0.02
freq.    1075.29  E(vib)   ...       0.02
freq.    1128.47  E(vib)   ...       0.01
freq.    1147.59  E(vib)   ...       0.01
freq.    1191.91  E(vib)   ...       0.01
freq.    1207.03  E(vib)   ...       0.01
freq.    1228.50  E(vib)   ...       0.01
freq.    1259.08  E(vib)   ...       0.01
freq.    1291.11  E(vib)   ...       0.01
freq.    1348.82  E(vib)   ...       0.01
freq.    1354.36  E(vib)   ...       0.01
freq.    1366.02  E(vib)   ...       0.01
freq.    1399.73  E(vib)   ...       0.00
freq.    1409.29  E(vib)   ...       0.00
freq.    1414.92  E(vib)   ...       0.00
freq.    1427.04  E(vib)   ...       0.00
freq.    1444.13  E(vib)   ...       0.00
freq.    1454.65  E(vib)   ...       0.00
freq.    1459.92  E(vib)   ...       0.00
freq.    1490.46  E(vib)   ...       0.00
freq.    1507.90  E(vib)   ...       0.00
freq.    1519.66  E(vib)   ...       0.00
freq.    1521.24  E(vib)   ...       0.00
freq.    1526.73  E(vib)   ...       0.00
freq.    1539.00  E(vib)   ...       0.00
freq.    1545.39  E(vib)   ...       0.00
freq.    1728.97  E(vib)   ...       0.00
freq.    1787.08  E(vib)   ...       0.00
freq.    3067.67  E(vib)   ...       0.00
freq.    3081.48  E(vib)   ...       0.00
freq.    3095.07  E(vib)   ...       0.00
freq.    3099.63  E(vib)   ...       0.00
freq.    3101.31  E(vib)   ...       0.00
freq.    3123.31  E(vib)   ...       0.00
freq.    3151.37  E(vib)   ...       0.00
freq.    3176.72  E(vib)   ...       0.00
freq.    3182.49  E(vib)   ...       0.00
freq.    3184.90  E(vib)   ...       0.00
freq.    3187.47  E(vib)   ...       0.00
freq.    3201.61  E(vib)   ...       0.00
freq.    3207.44  E(vib)   ...       0.00
freq.    3224.05  E(vib)   ...       0.00
freq.    3246.15  E(vib)   ...       0.00
freq.    3303.67  E(vib)   ...       0.00

------------
INNER ENERGY
------------

The inner energy is: U= E(el) + E(ZPE) + E(vib) + E(rot) + E(trans)
    E(el)   - is the total energy from the electronic structure calculation
              = E(kin-el) + E(nuc-el) + E(el-el) + E(nuc-nuc)
    E(ZPE)  - the the zero temperature vibrational energy from the frequency calculation
    E(vib)  - the the finite temperature correction to E(ZPE) due to population
              of excited vibrational states
    E(rot)  - is the rotational thermal energy
    E(trans)- is the translational thermal energy

Summary of contributions to the inner energy U:
Electronic energy                ...    -66.60495019 Eh
Zero point energy                ...      0.24184477 Eh     151.76 kcal/mol
Thermal vibrational correction   ...      0.00729666 Eh       4.58 kcal/mol
Thermal rotational correction    ...      0.00141627 Eh       0.89 kcal/mol
Thermal translational correction ...      0.00141627 Eh       0.89 kcal/mol
-----------------------------------------------------------------------
Total thermal energy                    -66.35297622 Eh

Summary of corrections to the electronic energy:
(perhaps to be used in another calculation)
Total thermal correction                  0.01012920 Eh       6.36 kcal/mol
Non-thermal (ZPE) correction              0.24184477 Eh     151.76 kcal/mol
-----------------------------------------------------------------------
Total correction                          0.25197397 Eh     158.12 kcal/mol

--------
ENTHALPY
--------

The enthalpy is H = U + kB*T
                kB is Boltzmann's constant
Total thermal energy              ...    -66.35297622 Eh
Thermal Enthalpy correction       ...      0.00094421 Eh       0.59 kcal/mol
-----------------------------------------------------------------------
Total Enthalpy                    ...    -66.35203201 Eh

Note: Only C1 symmetry has been detected, increase convergence thresholds
      if your molecule has a higher symmetry. Symmetry factor of 1.0 is
      used for the rotational entropy correction.

Note: Rotational entropy computed according to Herzberg
Infrared and Raman Spectra, Chapter V,1, Van Nostrand Reinhold, 1945
Point Group:  C1, Symmetry Number:   1
Rotational constants in cm-1:     0.088014     0.028769     0.026426

Vibrational entropy computed according to the QRRHO of S. Grimme
Chem.Eur.J. 2012 18 9955 using a reference frequency of 100.0 cm-1

-------
ENTROPY
-------

The entropy contributions are T*S = T*(S(el)+S(vib)+S(rot)+S(trans))
     S(el)   - electronic entropy
     S(vib)  - vibrational entropy
     S(rot)  - rotational entropy
     S(trans)- translational entropy
The entropies will be listed as multiplied by the temperature to get
units of energy

                             ****ORCA TERMINATED NORMALLY****
TOTAL RUN TIME: 0 days 0 hours 10 minutes 27 seconds 119 msec
