                         Program Version 6.0.1  -  RELEASE   -
|  1> ! wB97X-3c OPT FREQ TightSCF
|  2> %pal
|  3>   nprocs 40
|  4> end
|  5> * xyz 0 1
|  6> C      4.011868    -0.946959    -0.524869
|  7> C      2.564813    -0.827891    -0.130409
|  8> C      1.767826     0.038527    -0.779744
|  9> C      0.292647     0.249830    -0.440964
| 10> C     -0.339568    -0.893242     0.454095
| 11> C      0.590954    -2.129228     0.578710
| 12> C      2.002658    -1.696029     0.957988
| 13> C     -1.807799    -1.314514     0.048108
| 14> C     -2.842643    -0.191629     0.362084
| 15> C     -2.508223     1.219494    -0.152031
| 16> C     -1.401362     1.896813     0.676497
| 17> C      0.044950     1.705836     0.121082
| 18> C      0.269888     2.747415    -1.007234
| 19> C      1.034426     2.033956     1.268997
| 20> C     -1.927731    -1.741594    -1.441601
| 21> O     -2.154204    -2.430791     0.842187
| 22> H      4.543565    -1.686386     0.109899
| 23> H      4.087027    -1.271465    -1.584243
| 24> H      4.513979     0.036766    -0.408174
| 25> H      2.194766     0.630184    -1.584554
| 26> H     -0.185253     0.204582    -1.433901
| 27> H     -0.408285    -0.512711     1.495881
| 28> H      0.220694    -2.814660     1.371527
| 29> H      0.632937    -2.698569    -0.373402
| 30> H      2.632834    -2.599516     1.104729
| 31> H      1.984440    -1.126730     1.912441
| 32> H     -3.005185    -0.143567     1.461871
| 33> H     -3.826624    -0.482863    -0.068548
| 34> H     -3.430559     1.831185    -0.041471
| 35> H     -2.276829     1.216781    -1.235632
| 36> H     -1.631038     2.984210     0.738063
| 37> H     -1.464214     1.548986     1.731318
| 38> H      1.317227     2.732723    -1.372425
| 39> H      0.070722     3.778180    -0.642013
| 40> H     -0.401141     2.553418    -1.870269
| 41> H      0.966922     1.282661     2.082989
| 42> H      2.084428     2.059564     0.907759
| 43> H      0.809521     3.032020     1.704079
| 44> H     -1.130039    -2.454817    -1.727064
| 45> H     -1.904511    -0.882699    -2.139461
| 46> H     -2.899997    -2.249461    -1.617850
| 47> H     -3.093888    -2.687812     0.645554
| 48> *
| 49>
| 50>                          ****END OF INPUT****
 Total Charge           Charge          ....    0
 Multiplicity           Mult            ....    1
 Number of Electrons    NEL             ....   92
Dispersion correction           -0.058015060
FINAL SINGLE POINT ENERGY      -117.210133105815
Dispersion correction             ... done (  0.1 sec)
Dispersion correction           -0.059528070
FINAL SINGLE POINT ENERGY      -117.225394627059
Dispersion correction             ... done (  0.1 sec)
Dispersion correction           -0.059616385
FINAL SINGLE POINT ENERGY      -117.226638348562
Dispersion correction             ... done (  0.1 sec)
FINAL SINGLE POINT ENERGY      -117.227006967903
FINAL SINGLE POINT ENERGY      -117.227106017086
FINAL SINGLE POINT ENERGY      -117.227235577835
FINAL SINGLE POINT ENERGY      -117.227778756162
FINAL SINGLE POINT ENERGY      -117.228193167034
FINAL SINGLE POINT ENERGY      -117.229227580872
FINAL SINGLE POINT ENERGY      -117.230146991744
FINAL SINGLE POINT ENERGY      -117.230624912909
FINAL SINGLE POINT ENERGY      -117.230722976019
FINAL SINGLE POINT ENERGY      -117.230794598109
FINAL SINGLE POINT ENERGY      -117.230818741687
FINAL SINGLE POINT ENERGY      -117.230832444433
Dispersion correction             ... done (  0.0 sec)
Dispersion correction           -0.059534847
FINAL SINGLE POINT ENERGY      -117.230835451501
Dispersion correction             ... done (  0.1 sec)
Dispersion correction           -0.059535354
FINAL SINGLE POINT ENERGY      -117.230836976216
Dispersion correction             ... done (  0.0 sec)
                    ***********************HURRAY********************

CARTESIAN COORDINATES (ANGSTROEM)
---------------------------------
  C      3.988261   -0.887461   -0.472445
  C      2.530328   -0.807005   -0.160420
  C      1.712041    0.042707   -0.763331
  C      0.257670    0.244213   -0.435549
  C     -0.340240   -0.874873    0.449283
  C      0.553492   -2.109220    0.530390
  C      1.985769   -1.752366    0.863925
  C     -1.774139   -1.268474    0.023907
  C     -2.805300   -0.183717    0.333449
  C     -2.508836    1.235989   -0.116499
  C     -1.378735    1.878786    0.674042
  C      0.043425    1.680485    0.131731
  C      0.267891    2.697167   -0.987328
  C      1.014133    1.980382    1.268868
  C     -1.879074   -1.688575   -1.437481
  O     -2.104318   -2.397705    0.836054
  H      4.582795   -0.718306    0.427472
  H      4.253271   -1.879250   -0.842945
  H      4.283685   -0.151788   -1.218159
  H      2.120556    0.691688   -1.529142
  H     -0.264010    0.233370   -1.393261
  H     -0.424359   -0.500592    1.473036
  H      0.145485   -2.793612    1.268731
  H      0.554882   -2.637778   -0.424216
  H      2.596153   -2.656956    0.895748
  H      2.052815   -1.308411    1.862657
  H     -2.941201   -0.176027    1.417181
  H     -3.759570   -0.505607   -0.095590
  H     -3.417837    1.820378    0.033652
  H     -2.310871    1.278048   -1.189627
  H     -1.547781    2.955347    0.743262
  H     -1.431447    1.512825    1.701806
  H      1.269507    2.632168   -1.407217
  H      0.142183    3.711477   -0.607339
  H     -0.444397    2.558196   -1.801621
  H      0.951393    1.226472    2.053889
  H      2.045244    2.013985    0.922593
  H      0.776732    2.945409    1.718717
  H     -1.111131   -2.409318   -1.706650
  H     -1.814549   -0.845109   -2.120376
  H     -2.848841   -2.159045   -1.603640
  H     -3.021075   -2.627901    0.682439

 Multiplicity           Mult            ....    1
 Number of Electrons    NEL             ....   92
 Basis Dimension        Dim             ....  338

ORBITAL ENERGIES
----------------

  NO   OCC          E(Eh)            E(eV)
   0   2.0000      -1.145778       -31.1782
   1   2.0000      -0.997845       -27.1528
   2   2.0000      -0.958825       -26.0910
   3   2.0000      -0.933397       -25.3990
   4   2.0000      -0.905019       -24.6268
   5   2.0000      -0.875143       -23.8139
   6   2.0000      -0.853575       -23.2269
   7   2.0000      -0.820303       -22.3216
   8   2.0000      -0.815700       -22.1963
   9   2.0000      -0.812535       -22.1102
  10   2.0000      -0.758317       -20.6348
  11   2.0000      -0.750574       -20.4242
  12   2.0000      -0.713599       -19.4180
  13   2.0000      -0.681877       -18.5548
  14   2.0000      -0.652589       -17.7579
  15   2.0000      -0.630144       -17.1471
  16   2.0000      -0.610888       -16.6231
  17   2.0000      -0.602573       -16.3968
  18   2.0000      -0.579887       -15.7795
  19   2.0000      -0.572060       -15.5665
  20   2.0000      -0.555216       -15.1082
  21   2.0000      -0.552433       -15.0325
  22   2.0000      -0.547962       -14.9108
  23   2.0000      -0.538836       -14.6625
  24   2.0000      -0.527709       -14.3597
  25   2.0000      -0.519987       -14.1496
  26   2.0000      -0.517057       -14.0698
  27   2.0000      -0.507760       -13.8169
  28   2.0000      -0.503483       -13.7005
  29   2.0000      -0.493275       -13.4227
  30   2.0000      -0.482973       -13.1424
  31   2.0000      -0.474632       -12.9154
  32   2.0000      -0.469837       -12.7849
  33   2.0000      -0.464337       -12.6352
  34   2.0000      -0.459666       -12.5081
  35   2.0000      -0.452965       -12.3258
  36   2.0000      -0.448853       -12.2139
  37   2.0000      -0.442280       -12.0351
  38   2.0000      -0.430802       -11.7227
  39   2.0000      -0.420023       -11.4294
  40   2.0000      -0.408896       -11.1266
  41   2.0000      -0.406481       -11.0609
  42   2.0000      -0.391742       -10.6599
  43   2.0000      -0.388539       -10.5727
  44   2.0000      -0.373334       -10.1589
  45   2.0000      -0.323408        -8.8004
  46   0.0000       0.083041         2.2596
  47   0.0000       0.090305         2.4573
  48   0.0000       0.095153         2.5892
  49   0.0000       0.096330         2.6213
  50   0.0000       0.105375         2.8674

MULLIKEN ATOMIC CHARGES
-----------------------
   0 C :   -0.049531
   1 C :   -0.050416
   2 C :   -0.001336
   3 C :   -0.068643
   4 C :   -0.018974
   5 C :    0.004980
   6 C :   -0.037457
   7 C :   -0.061119
   8 C :   -0.011298
   9 C :   -0.034948
  10 C :   -0.006807
  11 C :   -0.187965
  12 C :   -0.001394
  13 C :    0.013346
  14 C :    0.015973
  15 O :   -0.293838
  16 H :    0.034942
  17 H :    0.036545
  18 H :    0.025442
  19 H :   -0.001768
  20 H :    0.028207
  21 H :    0.025376
  22 H :    0.050142
  23 H :    0.024675
  24 H :    0.026843
  25 H :    0.032558
  26 H :    0.036912
  27 H :    0.019301
  28 H :    0.036310
  29 H :    0.007404
  30 H :    0.026539
  31 H :    0.020070
  32 H :    0.021474
  33 H :    0.026032
  34 H :    0.025349
  35 H :    0.015910
  36 H :    0.030324
  37 H :    0.023927
  38 H :    0.031545
  39 H :    0.023927
  40 H :    0.020297
  41 H :    0.141146
Sum of atomic charges:    0.0000000

LOEWDIN ATOMIC CHARGES
----------------------
   0 C :   -0.110077
   1 C :   -0.046827
   2 C :   -0.044674
   3 C :   -0.045525
   4 C :   -0.034634
   5 C :   -0.067760
   6 C :   -0.079403
   7 C :   -0.036256
   8 C :   -0.080112
   9 C :   -0.077661
  10 C :   -0.073739
  11 C :   -0.064921
  12 C :   -0.103357
  13 C :   -0.101404
  14 C :   -0.099670
  15 O :   -0.057011
  16 H :    0.048863
  17 H :    0.048271
  18 H :    0.048577
  19 H :    0.032869
  20 H :    0.039662
  21 H :    0.044767
  22 H :    0.048663
  23 H :    0.041398
  24 H :    0.049697
  25 H :    0.045600
  26 H :    0.050081
  27 H :    0.043221
  28 H :    0.049996
  29 H :    0.036727
  30 H :    0.046864
  31 H :    0.043453
  32 H :    0.039699
  33 H :    0.044230
  34 H :    0.040544
  35 H :    0.040336
  36 H :    0.043785
  37 H :    0.044491
  38 H :    0.045215
  39 H :    0.039667
  40 H :    0.042964
  41 H :    0.023390

  Mayer bond orders larger than 0.100000
B(  0-C ,  1-C ) :   1.0354 B(  0-C , 16-H ) :   0.9768 B(  0-C , 17-H ) :   0.9796
B(  0-C , 18-H ) :   0.9903 B(  1-C ,  2-C ) :   1.8987 B(  1-C ,  6-C ) :   1.0049
B(  2-C ,  3-C ) :   1.0667 B(  2-C , 19-H ) :   0.9883 B(  3-C ,  4-C ) :   0.9632
B(  3-C , 11-C ) :   0.9688 B(  3-C , 20-H ) :   0.9814 B(  4-C ,  5-C ) :   0.9980
B(  4-C ,  7-C ) :   0.9994 B(  4-C , 21-H ) :   0.9858 B(  5-C ,  6-C ) :   0.9998
B(  5-C , 22-H ) :   0.9894 B(  5-C , 23-H ) :   0.9878 B(  6-C , 24-H ) :   0.9912
B(  6-C , 25-H ) :   0.9779 B(  7-C ,  8-C ) :   1.0002 B(  7-C , 14-C ) :   1.0127
B(  7-C , 15-O ) :   1.0031 B(  8-C ,  9-C ) :   0.9920 B(  8-C , 26-H ) :   0.9890
B(  8-C , 27-H ) :   0.9928 B(  9-C , 10-C ) :   0.9862 B(  9-C , 28-H ) :   0.9969
B(  9-C , 29-H ) :   0.9911 B( 10-C , 11-C ) :   0.9893 B( 10-C , 30-H ) :   0.9980
B( 10-C , 31-H ) :   0.9945 B( 11-C , 12-C ) :   1.0106 B( 11-C , 13-C ) :   1.0126
B( 12-C , 32-H ) :   0.9924 B( 12-C , 33-H ) :   0.9909 B( 12-C , 34-H ) :   0.9890
B( 13-C , 35-H ) :   0.9898 B( 13-C , 36-H ) :   0.9873 B( 13-C , 37-H ) :   0.9894
B( 14-C , 38-H ) :   0.9892 B( 14-C , 39-H ) :   0.9809 B( 14-C , 40-H ) :   0.9827
B( 15-O , 41-H ) :   1.0600

Dispersion correction           -0.059533210
FINAL SINGLE POINT ENERGY      -117.230837186624

DIPOLE MOMENT
-------------

Method             : SCF
Type of density    : Electron Density
Multiplicity       :   1
Irrep              :   0
Energy             :  -117.1713039768370805 Eh
Relativity type    :
Basis              : AO
                                X                 Y                 Z
Electronic contribution:     -0.278697069      -4.636978205       1.340517273
Nuclear contribution   :     -0.108470832       4.895137637      -1.613348192
                        -----------------------------------------
Total Dipole Moment    :     -0.387167901       0.258159432      -0.272830919
                        -----------------------------------------
Magnitude (a.u.)       :      0.539427462
Magnitude (Debye)      :      1.371115643

VIBRATIONAL FREQUENCIES
-----------------------

Scaling factor for frequencies =  1.000000000  (already applied!)

     0:       0.00 cm**-1
     1:       0.00 cm**-1
     2:       0.00 cm**-1
     3:       0.00 cm**-1
     4:       0.00 cm**-1
     5:       0.00 cm**-1
     6:      49.96 cm**-1
     7:      83.92 cm**-1
     8:     114.97 cm**-1
     9:     146.29 cm**-1
    10:     174.07 cm**-1
    11:     197.52 cm**-1
    12:     205.85 cm**-1
    13:     224.17 cm**-1
    14:     247.28 cm**-1
    15:     256.92 cm**-1
    16:     264.24 cm**-1
    17:     266.48 cm**-1
    18:     275.77 cm**-1
    19:     303.85 cm**-1
    20:     319.53 cm**-1
    21:     334.81 cm**-1
    22:     337.76 cm**-1
    23:     361.41 cm**-1
    24:     388.28 cm**-1
    25:     421.02 cm**-1
    26:     428.10 cm**-1
    27:     452.26 cm**-1
    28:     467.02 cm**-1
    29:     498.42 cm**-1
    30:     502.91 cm**-1
    31:     527.14 cm**-1
    32:     543.89 cm**-1
    33:     570.00 cm**-1
    34:     591.32 cm**-1
    35:     693.46 cm**-1
    36:     768.35 cm**-1
    37:     803.21 cm**-1
    38:     812.36 cm**-1
    39:     856.91 cm**-1
    40:     883.41 cm**-1
    41:     891.49 cm**-1
    42:     916.56 cm**-1
    43:     943.96 cm**-1
    44:     957.08 cm**-1
    45:     968.30 cm**-1
    46:     976.86 cm**-1
    47:     984.44 cm**-1
    48:    1002.64 cm**-1
    49:    1026.69 cm**-1
    50:    1032.78 cm**-1
    51:    1034.02 cm**-1
    52:    1053.60 cm**-1
    53:    1063.64 cm**-1
    54:    1075.97 cm**-1
    55:    1093.17 cm**-1
    56:    1127.22 cm**-1
    57:    1134.25 cm**-1
    58:    1139.11 cm**-1
    59:    1153.28 cm**-1
    60:    1191.35 cm**-1
    61:    1203.90 cm**-1
    62:    1214.19 cm**-1
    63:    1220.89 cm**-1
    64:    1231.09 cm**-1
    65:    1250.11 cm**-1
    66:    1259.45 cm**-1
    67:    1288.89 cm**-1
    68:    1298.63 cm**-1
    69:    1313.39 cm**-1
    70:    1328.88 cm**-1
    71:    1357.93 cm**-1
    72:    1364.19 cm**-1
    73:    1373.38 cm**-1
    74:    1377.62 cm**-1
    75:    1407.55 cm**-1
    76:    1408.54 cm**-1
    77:    1426.97 cm**-1
    78:    1432.35 cm**-1
    79:    1435.66 cm**-1
    80:    1439.31 cm**-1
    81:    1443.54 cm**-1
    82:    1451.77 cm**-1
    83:    1453.20 cm**-1
    84:    1455.98 cm**-1
    85:    1461.08 cm**-1
    86:    1506.33 cm**-1
    87:    1509.52 cm**-1
    88:    1511.83 cm**-1
    89:    1514.99 cm**-1
    90:    1518.52 cm**-1
    91:    1521.19 cm**-1
    92:    1524.80 cm**-1
    93:    1525.29 cm**-1
    94:    1530.32 cm**-1
    95:    1531.53 cm**-1
    96:    1535.76 cm**-1
    97:    1537.01 cm**-1
    98:    1545.19 cm**-1
    99:    1812.39 cm**-1
   100:    3073.59 cm**-1
   101:    3079.13 cm**-1
   102:    3089.51 cm**-1
   103:    3090.40 cm**-1
   104:    3094.24 cm**-1
   105:    3097.03 cm**-1
   106:    3100.05 cm**-1
   107:    3105.32 cm**-1
   108:    3109.27 cm**-1
   109:    3117.79 cm**-1
   110:    3123.73 cm**-1
   111:    3133.49 cm**-1
   112:    3137.43 cm**-1
   113:    3140.69 cm**-1
   114:    3151.22 cm**-1
   115:    3166.03 cm**-1
   116:    3178.61 cm**-1
   117:    3180.38 cm**-1
   118:    3193.74 cm**-1
   119:    3197.56 cm**-1
   120:    3199.18 cm**-1
   121:    3199.88 cm**-1
   122:    3200.05 cm**-1
   123:    3224.93 cm**-1
   124:    3225.28 cm**-1
   125:    3951.84 cm**-1

IR SPECTRUM
-----------

 Mode   freq       eps      Int      T**2         TX        TY        TZ
       cm**-1   L/(mol*cm) km/mol    a.u.
----------------------------------------------------------------------------
  6:     49.96   0.000076    0.39  0.000478  ( 0.008429 -0.012101 -0.016135)
  7:     83.92   0.000005    0.03  0.000020  (-0.001232  0.004005  0.001596)
  8:    114.97   0.000105    0.53  0.000286  (-0.005046 -0.011708 -0.011091)
  9:    146.29   0.000092    0.47  0.000196  ( 0.006058 -0.008752 -0.009115)
 10:    174.07   0.000052    0.26  0.000093  (-0.005320 -0.006369  0.004940)
 11:    197.52   0.000143    0.72  0.000225  ( 0.008878  0.001433 -0.012024)
 12:    205.85   0.000155    0.79  0.000236  ( 0.007813 -0.006647 -0.011423)
 13:    224.17   0.000033    0.17  0.000046  ( 0.000198 -0.005549 -0.003959)
 14:    247.28   0.000126    0.64  0.000159  ( 0.000674  0.012363 -0.002315)
 15:    256.92   0.001727    8.73  0.002098  (-0.006530  0.031164  0.032922)
 16:    264.24   0.017812   90.02  0.021036  (-0.039479  0.098079  0.099288)
 17:    266.48   0.000865    4.37  0.001013  ( 0.004144 -0.018572 -0.025511)
 18:    275.77   0.000671    3.39  0.000760  ( 0.009974 -0.017244 -0.019047)
 19:    303.85   0.000021    0.11  0.000022  (-0.003079 -0.003357 -0.000983)
 20:    319.53   0.000229    1.16  0.000224  ( 0.011422  0.007458  0.006118)
 21:    334.81   0.001100    5.56  0.001025  ( 0.025128  0.014909 -0.013098)
 22:    337.76   0.000110    0.56  0.000102  ( 0.009932  0.000625 -0.001633)
 23:    361.41   0.000053    0.27  0.000046  ( 0.001387  0.006123  0.002528)
 24:    388.28   0.000132    0.67  0.000106  (-0.005716  0.000072  0.008571)
 25:    421.02   0.000342    1.73  0.000254  (-0.006929  0.009078  0.011101)
 26:    428.10   0.000429    2.17  0.000313  ( 0.004561 -0.015487 -0.007234)
 27:    452.26   0.000240    1.21  0.000165  ( 0.004710 -0.011835 -0.001745)
 28:    467.02   0.001030    5.21  0.000688  (-0.004742  0.013891  0.021747)
 29:    498.42   0.000233    1.18  0.000146  (-0.009849  0.001107  0.006923)
 30:    502.91   0.000145    0.73  0.000090  ( 0.000285 -0.008797 -0.003571)
 31:    527.14   0.000845    4.27  0.000500  (-0.017692 -0.012694 -0.005121)
 32:    543.89   0.000706    3.57  0.000405  ( 0.012002  0.012644 -0.010052)
 33:    570.00   0.000661    3.34  0.000362  ( 0.006599  0.017663 -0.002572)
 34:    591.32   0.000413    2.09  0.000218  (-0.001004  0.010657  0.010177)
 35:    693.46   0.000583    2.94  0.000262  (-0.002965  0.012130  0.010310)
 36:    768.35   0.000167    0.84  0.000068  (-0.003789 -0.006571  0.003211)
 37:    803.21   0.000603    3.05  0.000234  ( 0.008376  0.011409 -0.005815)
 38:    812.36   0.000118    0.60  0.000046  ( 0.005962 -0.001805 -0.002591)
 39:    856.91   0.001155    5.83  0.000420  (-0.004813  0.005817  0.019065)
 40:    883.41   0.000747    3.77  0.000264  ( 0.001497  0.011027 -0.011831)
 41:    891.49   0.000646    3.26  0.000226  (-0.004193  0.002014 -0.014299)
 42:    916.56   0.002510   12.69  0.000855  ( 0.005839  0.027991  0.006088)
 43:    943.96   0.000410    2.07  0.000136  ( 0.011583  0.000701 -0.001009)
 44:    957.08   0.000319    1.61  0.000104  (-0.001811  0.007121  0.007075)
 45:    968.30   0.000289    1.46  0.000093  (-0.001072 -0.006381  0.007164)
 46:    976.86   0.004161   21.03  0.001329  (-0.015024 -0.024452  0.022483)
 47:    984.44   0.000454    2.30  0.000144  (-0.004017 -0.007690  0.008290)
 48:   1002.64   0.000541    2.73  0.000168  ( 0.009582  0.003444 -0.008035)
 49:   1026.69   0.001044    5.28  0.000317  ( 0.010696  0.013653 -0.004068)
 50:   1032.78   0.001232    6.23  0.000372  (-0.012114  0.015013 -0.000420)
 51:   1034.02   0.000180    0.91  0.000054  ( 0.003789  0.006068  0.001752)
 52:   1053.60   0.000445    2.25  0.000132  (-0.006047 -0.008180 -0.005334)
 53:   1063.64   0.000956    4.83  0.000281  (-0.008369  0.004013 -0.013942)
 54:   1075.97   0.000964    4.87  0.000279  ( 0.009415 -0.013719  0.001623)
 55:   1093.17   0.000847    4.28  0.000242  ( 0.000617  0.013139 -0.008288)
 56:   1127.22   0.001099    5.55  0.000304  (-0.010602 -0.011716  0.007382)
 57:   1134.25   0.000520    2.63  0.000143  (-0.000881  0.009983 -0.006522)
 58:   1139.11   0.010533   53.23  0.002886  ( 0.019354  0.045702 -0.020553)
 59:   1153.28   0.008914   45.05  0.002412  (-0.022751 -0.033587  0.027684)
 60:   1191.35   0.000594    3.00  0.000156  (-0.011072 -0.005016 -0.002800)
 61:   1203.90   0.000162    0.82  0.000042  ( 0.006379  0.000857 -0.000701)
 62:   1214.19   0.001775    8.97  0.000456  (-0.007678 -0.019903  0.001007)
 63:   1220.89   0.000554    2.80  0.000142  ( 0.005282 -0.005152 -0.009334)
 64:   1231.09   0.000592    2.99  0.000150  (-0.000123  0.011871  0.003029)
 65:   1250.11   0.000186    0.94  0.000046  ( 0.003062  0.005312 -0.002975)
 66:   1259.45   0.000885    4.47  0.000219  ( 0.008220 -0.007450 -0.009814)
 67:   1288.89   0.004147   20.96  0.001004  (-0.002425  0.027594 -0.015390)
 68:   1298.63   0.000648    3.28  0.000156  ( 0.002005  0.012070 -0.002468)
 69:   1313.39   0.002925   14.78  0.000695  (-0.005643  0.023748 -0.009958)
 70:   1328.88   0.000338    1.71  0.000079  (-0.005383  0.001652  0.006898)
 71:   1357.93   0.000320    1.62  0.000074  ( 0.005690  0.006319 -0.001097)
 72:   1364.19   0.000356    1.80  0.000081  ( 0.002747 -0.005737 -0.006396)
 73:   1373.38   0.000481    2.43  0.000109  (-0.010020  0.002205 -0.002014)
 74:   1377.62   0.000587    2.96  0.000133  ( 0.011295  0.000316 -0.002285)
 75:   1407.55   0.001263    6.38  0.000280  ( 0.004025 -0.014399  0.007513)
 76:   1408.54   0.003880   19.61  0.000860  ( 0.009984 -0.022594  0.015796)
 77:   1426.97   0.000201    1.02  0.000044  (-0.004051 -0.000270 -0.005240)
 78:   1432.35   0.002586   13.07  0.000564  (-0.002113  0.005358 -0.023029)
 79:   1435.66   0.001032    5.22  0.000224  ( 0.004566 -0.011409  0.008563)
 80:   1439.31   0.000238    1.20  0.000052  (-0.004279 -0.004736 -0.003306)
 81:   1443.54   0.000397    2.01  0.000086  (-0.005192 -0.006838 -0.003483)
 82:   1451.77   0.000819    4.14  0.000176  (-0.001492 -0.001373 -0.013113)
 83:   1453.20   0.004812   24.32  0.001033  (-0.004674 -0.018131 -0.026132)
 84:   1455.98   0.002891   14.61  0.000620  (-0.001208  0.012149 -0.021691)
 85:   1461.08   0.002129   10.76  0.000455  (-0.018264 -0.011009 -0.000163)
 86:   1506.33   0.002022   10.22  0.000419  (-0.006877 -0.007441 -0.017781)
 87:   1509.52   0.000588    2.97  0.000122  (-0.000207  0.006144  0.009155)
 88:   1511.83   0.000378    1.91  0.000078  (-0.000598  0.008766 -0.000927)
 89:   1514.99   0.000395    1.99  0.000081  ( 0.002708 -0.007466  0.004267)
 90:   1518.52   0.000629    3.18  0.000129  (-0.008752 -0.002185 -0.006916)
 91:   1521.19   0.002611   13.20  0.000536  ( 0.003918 -0.016580  0.015666)
 92:   1524.80   0.001460    7.38  0.000299  (-0.012089  0.003519 -0.011840)
 93:   1525.29   0.001492    7.54  0.000305  ( 0.010664 -0.012668  0.005578)
 94:   1530.32   0.000960    4.85  0.000196  ( 0.009525 -0.009597 -0.003610)
 95:   1531.53   0.002216   11.20  0.000452  (-0.008180 -0.019584  0.001079)
 96:   1535.76   0.003512   17.75  0.000714  ( 0.018697  0.011595 -0.015155)
 97:   1537.01   0.001097    5.54  0.000223  (-0.009378  0.009941  0.005995)
 98:   1545.19   0.003132   15.83  0.000633  ( 0.000375  0.012866  0.021608)
 99:   1812.39   0.000419    2.12  0.000072  (-0.005928  0.005742 -0.002014)
100:   3073.59   0.007393   37.36  0.000751  (-0.024564 -0.010635  0.005844)
101:   3079.13   0.006375   32.22  0.000646  (-0.011439  0.008171 -0.021177)
102:   3089.51   0.002049   10.35  0.000207  ( 0.002142 -0.005367 -0.013174)
103:   3090.40   0.010074   50.91  0.001017  (-0.030688  0.008538 -0.001621)
104:   3094.24   0.002920   14.76  0.000295  ( 0.008025 -0.002390  0.014981)
105:   3097.03   0.005444   27.51  0.000549  (-0.002314 -0.009054  0.021476)
106:   3100.05   0.007565   38.23  0.000762  (-0.013634 -0.015202 -0.018562)
107:   3105.32   0.006080   30.73  0.000611  ( 0.012170 -0.021124 -0.004082)
108:   3109.27   0.001620    8.19  0.000163  ( 0.012103 -0.000900  0.003909)
109:   3117.79   0.002651   13.40  0.000265  (-0.003154 -0.014455 -0.006818)
110:   3123.73   0.007178   36.28  0.000717  ( 0.019425  0.003278  0.018140)
111:   3133.49   0.003222   16.28  0.000321  (-0.011724 -0.012041 -0.006200)
112:   3137.43   0.009707   49.05  0.000965  (-0.010274  0.028683  0.006096)
113:   3140.69   0.006026   30.45  0.000599  (-0.011247  0.013204 -0.017261)
114:   3151.22   0.007359   37.19  0.000729  (-0.010114  0.007079  0.024008)
115:   3166.03   0.002310   11.67  0.000228  ( 0.001042  0.010213  0.011057)
116:   3178.61   0.002156   10.89  0.000212  ( 0.006650 -0.002276  0.012737)
117:   3180.38   0.007701   38.92  0.000756  (-0.001332 -0.026246 -0.008060)
118:   3193.74   0.002959   14.96  0.000289  ( 0.015664  0.004358 -0.004982)
119:   3197.56   0.000748    3.78  0.000073  (-0.005083  0.004943 -0.004770)
120:   3199.18   0.001625    8.21  0.000159  ( 0.012471  0.000536 -0.001644)
121:   3199.88   0.003091   15.62  0.000301  ( 0.010711 -0.012281  0.005989)
122:   3200.05   0.007221   36.49  0.000704  ( 0.013924  0.009525 -0.020482)
123:   3224.93   0.003574   18.06  0.000346  ( 0.015608 -0.000990 -0.010065)
124:   3225.28   0.004294   21.70  0.000415  (-0.004616 -0.016860  0.010484)
125:   3951.84   0.007103   35.90  0.000561  (-0.020511 -0.011714  0.001725)

--------------------------
THERMOCHEMISTRY AT 298.15K
--------------------------

Temperature         ...   298.15 K
Pressure            ...     1.00 atm
Total Mass          ...   222.37 AMU
Quasi RRHO          ...     True
Cut-Off Frequency   ...     1.00 cm^-1

Throughout the following assumptions are being made:
  (1) The electronic state is orbitally nondegenerate
  (2) There are no thermally accessible electronically excited states
  (3) Hindered rotations indicated by low frequency modes are not
      treated as such but are treated as vibrations and this may
      cause some error
  (4) All equations used are the standard statistical mechanics
      equations for an ideal gas
  (5) All vibrations are strictly harmonic

freq.      49.96  E(vib)   ...       0.52
freq.      83.92  E(vib)   ...       0.48
freq.     114.97  E(vib)   ...       0.44
freq.     146.29  E(vib)   ...       0.41
freq.     174.07  E(vib)   ...       0.38
freq.     197.52  E(vib)   ...       0.35
freq.     205.85  E(vib)   ...       0.35
freq.     224.17  E(vib)   ...       0.33
freq.     247.28  E(vib)   ...       0.31
freq.     256.92  E(vib)   ...       0.30
freq.     264.24  E(vib)   ...       0.29
freq.     266.48  E(vib)   ...       0.29
freq.     275.77  E(vib)   ...       0.28
freq.     303.85  E(vib)   ...       0.26
freq.     319.53  E(vib)   ...       0.25
freq.     334.81  E(vib)   ...       0.24
freq.     337.76  E(vib)   ...       0.24
freq.     361.41  E(vib)   ...       0.22
freq.     388.28  E(vib)   ...       0.20
freq.     421.02  E(vib)   ...       0.18
freq.     428.10  E(vib)   ...       0.18
freq.     452.26  E(vib)   ...       0.16
freq.     467.02  E(vib)   ...       0.16
freq.     498.42  E(vib)   ...       0.14
freq.     502.91  E(vib)   ...       0.14
freq.     527.14  E(vib)   ...       0.13
freq.     543.89  E(vib)   ...       0.12
freq.     570.00  E(vib)   ...       0.11
freq.     591.32  E(vib)   ...       0.10
freq.     693.46  E(vib)   ...       0.07
freq.     768.35  E(vib)   ...       0.06
freq.     803.21  E(vib)   ...       0.05
freq.     812.36  E(vib)   ...       0.05
freq.     856.91  E(vib)   ...       0.04
freq.     883.41  E(vib)   ...       0.04
freq.     891.49  E(vib)   ...       0.03
freq.     916.56  E(vib)   ...       0.03
freq.     943.96  E(vib)   ...       0.03
freq.     957.08  E(vib)   ...       0.03
freq.     968.30  E(vib)   ...       0.03
freq.     976.86  E(vib)   ...       0.03
freq.     984.44  E(vib)   ...       0.02
freq.    1002.64  E(vib)   ...       0.02
freq.    1026.69  E(vib)   ...       0.02
freq.    1032.78  E(vib)   ...       0.02
freq.    1034.02  E(vib)   ...       0.02
freq.    1053.60  E(vib)   ...       0.02
freq.    1063.64  E(vib)   ...       0.02
freq.    1075.97  E(vib)   ...       0.02
freq.    1093.17  E(vib)   ...       0.02
freq.    1127.22  E(vib)   ...       0.01
freq.    1134.25  E(vib)   ...       0.01
freq.    1139.11  E(vib)   ...       0.01
freq.    1153.28  E(vib)   ...       0.01
freq.    1191.35  E(vib)   ...       0.01
freq.    1203.90  E(vib)   ...       0.01
freq.    1214.19  E(vib)   ...       0.01
freq.    1220.89  E(vib)   ...       0.01
freq.    1231.09  E(vib)   ...       0.01
freq.    1250.11  E(vib)   ...       0.01
freq.    1259.45  E(vib)   ...       0.01
freq.    1288.89  E(vib)   ...       0.01
freq.    1298.63  E(vib)   ...       0.01
freq.    1313.39  E(vib)   ...       0.01
freq.    1328.88  E(vib)   ...       0.01
freq.    1357.93  E(vib)   ...       0.01
freq.    1364.19  E(vib)   ...       0.01
freq.    1373.38  E(vib)   ...       0.01
freq.    1377.62  E(vib)   ...       0.01
freq.    1407.55  E(vib)   ...       0.00
freq.    1408.54  E(vib)   ...       0.00
freq.    1426.97  E(vib)   ...       0.00
freq.    1432.35  E(vib)   ...       0.00
freq.    1435.66  E(vib)   ...       0.00
freq.    1439.31  E(vib)   ...       0.00
freq.    1443.54  E(vib)   ...       0.00
freq.    1451.77  E(vib)   ...       0.00
freq.    1453.20  E(vib)   ...       0.00
freq.    1455.98  E(vib)   ...       0.00
freq.    1461.08  E(vib)   ...       0.00
freq.    1506.33  E(vib)   ...       0.00
freq.    1509.52  E(vib)   ...       0.00
freq.    1511.83  E(vib)   ...       0.00
freq.    1514.99  E(vib)   ...       0.00
freq.    1518.52  E(vib)   ...       0.00
freq.    1521.19  E(vib)   ...       0.00
freq.    1524.80  E(vib)   ...       0.00
freq.    1525.29  E(vib)   ...       0.00
freq.    1530.32  E(vib)   ...       0.00
freq.    1531.53  E(vib)   ...       0.00
freq.    1535.76  E(vib)   ...       0.00
freq.    1537.01  E(vib)   ...       0.00
freq.    1545.19  E(vib)   ...       0.00
freq.    1812.39  E(vib)   ...       0.00
freq.    3073.59  E(vib)   ...       0.00
freq.    3079.13  E(vib)   ...       0.00
freq.    3089.51  E(vib)   ...       0.00
freq.    3090.40  E(vib)   ...       0.00
freq.    3094.24  E(vib)   ...       0.00
freq.    3097.03  E(vib)   ...       0.00
freq.    3100.05  E(vib)   ...       0.00
freq.    3105.32  E(vib)   ...       0.00
freq.    3109.27  E(vib)   ...       0.00
freq.    3117.79  E(vib)   ...       0.00
freq.    3123.73  E(vib)   ...       0.00
freq.    3133.49  E(vib)   ...       0.00
freq.    3137.43  E(vib)   ...       0.00
freq.    3140.69  E(vib)   ...       0.00
freq.    3151.22  E(vib)   ...       0.00
freq.    3166.03  E(vib)   ...       0.00
freq.    3178.61  E(vib)   ...       0.00
freq.    3180.38  E(vib)   ...       0.00
freq.    3193.74  E(vib)   ...       0.00
freq.    3197.56  E(vib)   ...       0.00
freq.    3199.18  E(vib)   ...       0.00
freq.    3199.88  E(vib)   ...       0.00
freq.    3200.05  E(vib)   ...       0.00
freq.    3224.93  E(vib)   ...       0.00
freq.    3225.28  E(vib)   ...       0.00
freq.    3951.84  E(vib)   ...       0.00

------------
INNER ENERGY
------------

The inner energy is: U= E(el) + E(ZPE) + E(vib) + E(rot) + E(trans)
    E(el)   - is the total energy from the electronic structure calculation
              = E(kin-el) + E(nuc-el) + E(el-el) + E(nuc-nuc)
    E(ZPE)  - the the zero temperature vibrational energy from the frequency calculation
    E(vib)  - the the finite temperature correction to E(ZPE) due to population
              of excited vibrational states
    E(rot)  - is the rotational thermal energy
    E(trans)- is the translational thermal energy

Summary of contributions to the inner energy U:
Electronic energy                ...   -117.23083719 Eh
Zero point energy                ...      0.39463051 Eh     247.63 kcal/mol
Thermal vibrational correction   ...      0.01349470 Eh       8.47 kcal/mol
Thermal rotational correction    ...      0.00141627 Eh       0.89 kcal/mol
Thermal translational correction ...      0.00141627 Eh       0.89 kcal/mol
-----------------------------------------------------------------------
Total thermal energy                   -116.81987943 Eh

Rotational constants in cm-1:     0.022827     0.016733     0.011587

                             ****ORCA TERMINATED NORMALLY****
TOTAL RUN TIME: 0 days 0 hours 42 minutes 53 seconds 690 msec
