                         Program Version 6.0.1  -  RELEASE   -
|  1> ! wB97X-3c OPT FREQ TightSCF
|  2> %pal
|  3>   nprocs 40
|  4> end
|  5> * xyz 0 1
|  6> C     -1.880650     1.752596    -0.037168
|  7> C     -2.471992     0.497006     0.560000
|  8> C     -1.907032    -0.717655     0.380645
|  9> C     -0.628409    -0.960989    -0.381597
| 10> C      0.592274    -0.795165     0.530125
| 11> C      1.875228    -1.040695    -0.239466
| 12> C      2.529965    -0.058525    -0.898173
| 13> C      2.087999     1.382842    -0.914119
| 14> O      2.946235     2.144631    -1.718783
| 15> C      2.423418    -2.442353    -0.310490
| 16> C     -3.741486     0.585887     1.367232
| 17> H     -0.856554     1.919465     0.352600
| 18> H     -1.849598     1.670352    -1.143603
| 19> H     -2.486226     2.647135     0.216716
| 20> H     -2.388223    -1.589697     0.817183
| 21> H     -0.561220    -0.296985    -1.267814
| 22> H     -0.647296    -2.005224    -0.762707
| 23> H      0.600374     0.207014     1.004157
| 24> H      0.518599    -1.525612     1.365376
| 25> H      3.433494    -0.312207    -1.448320
| 26> H      2.073464     1.793325     0.120611
| 27> H      1.064922     1.452665    -1.336024
| 28> H      3.778453     2.284048    -1.195057
| 29> H      2.487504    -2.768442    -1.370324
| 30> H      3.436816    -2.472892     0.142683
| 31> H      1.772899    -3.159550     0.232963
| 32> H     -4.533127    -0.030911     0.891322
| 33> H     -4.111545     1.629687     1.439807
| 34> H     -3.558287     0.210248     2.396269
| 35> *
| 36>
| 37>                          ****END OF INPUT****
 Total Charge           Charge          ....    0
 Multiplicity           Mult            ....    1
 Number of Electrons    NEL             ....   64
Dispersion correction           -0.030447556
FINAL SINGLE POINT ENERGY       -83.840825528350
Dispersion correction             ... done (  0.1 sec)
Dispersion correction           -0.030453327
FINAL SINGLE POINT ENERGY       -83.849578292894
Dispersion correction             ... done (  0.1 sec)
Dispersion correction           -0.030356506
FINAL SINGLE POINT ENERGY       -83.850620664431
Dispersion correction             ... done (  0.1 sec)
FINAL SINGLE POINT ENERGY       -83.851258300657
FINAL SINGLE POINT ENERGY       -83.851515285380
FINAL SINGLE POINT ENERGY       -83.851958231691
FINAL SINGLE POINT ENERGY       -83.852906494435
FINAL SINGLE POINT ENERGY       -83.853919671044
FINAL SINGLE POINT ENERGY       -83.855553443426
FINAL SINGLE POINT ENERGY       -83.856699358979
FINAL SINGLE POINT ENERGY       -83.861982242211
FINAL SINGLE POINT ENERGY       -83.862694201807
FINAL SINGLE POINT ENERGY       -83.862852330987
FINAL SINGLE POINT ENERGY       -83.862908839502
FINAL SINGLE POINT ENERGY       -83.862942429381
FINAL SINGLE POINT ENERGY       -83.862969058886
FINAL SINGLE POINT ENERGY       -83.862985121074
Dispersion correction             ... done (  0.1 sec)
Dispersion correction           -0.029934022
FINAL SINGLE POINT ENERGY       -83.862990956527
Dispersion correction             ... done (  0.1 sec)
Dispersion correction           -0.029942607
FINAL SINGLE POINT ENERGY       -83.862993435017
Dispersion correction             ... done (  0.1 sec)
                    ***********************HURRAY********************

CARTESIAN COORDINATES (ANGSTROEM)
---------------------------------
  C     -2.362906    1.724578   -0.168782
  C     -2.548167    0.453737    0.600065
  C     -1.764218   -0.615509    0.497617
  C     -0.554011   -0.783895   -0.362680
  C      0.740962   -0.710997    0.447365
  C      1.957519   -1.008366   -0.384283
  C      2.626867   -0.086565   -1.072121
  C      2.338055    1.375714   -1.122223
  O      3.456176    2.150454   -0.729337
  C      2.357757   -2.450033   -0.437318
  C     -3.720169    0.462532    1.532822
  H     -1.498818    1.710431   -0.825737
  H     -3.245520    1.933660   -0.775596
  H     -2.248902    2.565371    0.517387
  H     -2.001678   -1.467929    1.128195
  H     -0.518229   -0.038132   -1.154617
  H     -0.606534   -1.752522   -0.865404
  H      0.808640    0.272733    0.910699
  H      0.686207   -1.429441    1.268385
  H      3.484482   -0.397103   -1.661116
  H      1.463087    1.633078   -0.522063
  H      2.124300    1.678417   -2.147398
  H      3.754797    1.841466    0.126772
  H      3.196472   -2.613099   -1.110320
  H      2.637857   -2.805101    0.555531
  H      1.526551   -3.072299   -0.772364
  H     -3.818926   -0.479771    2.067145
  H     -4.647189    0.644337    0.986444
  H     -3.624464    1.264255    2.266977

 Multiplicity           Mult            ....    1
 Number of Electrons    NEL             ....   64
 Basis Dimension        Dim             ....  233

ORBITAL ENERGIES
----------------

  NO   OCC          E(Eh)            E(eV)
   0   2.0000      -1.143339       -31.1118
   1   2.0000      -0.976453       -26.5706
   2   2.0000      -0.954588       -25.9756
   3   2.0000      -0.898215       -24.4417
   4   2.0000      -0.859208       -23.3802
   5   2.0000      -0.830370       -22.5955
   6   2.0000      -0.817861       -22.2551
   7   2.0000      -0.773405       -21.0454
   8   2.0000      -0.744274       -20.2527
   9   2.0000      -0.653238       -17.7755
  10   2.0000      -0.640469       -17.4280
  11   2.0000      -0.628079       -17.0909
  12   2.0000      -0.601386       -16.3645
  13   2.0000      -0.579851       -15.7785
  14   2.0000      -0.562020       -15.2933
  15   2.0000      -0.556512       -15.1435
  16   2.0000      -0.550951       -14.9921
  17   2.0000      -0.538406       -14.6508
  18   2.0000      -0.530107       -14.4249
  19   2.0000      -0.508794       -13.8450
  20   2.0000      -0.496768       -13.5177
  21   2.0000      -0.495772       -13.4906
  22   2.0000      -0.491123       -13.3641
  23   2.0000      -0.483093       -13.1456
  24   2.0000      -0.474556       -12.9133
  25   2.0000      -0.461306       -12.5528
  26   2.0000      -0.441628       -12.0173
  27   2.0000      -0.434574       -11.8254
  28   2.0000      -0.427078       -11.6214
  29   2.0000      -0.387945       -10.5565
  30   2.0000      -0.349932        -9.5221
  31   2.0000      -0.331404        -9.0180
  32   0.0000       0.072181         1.9642
  33   0.0000       0.084702         2.3048
  34   0.0000       0.089172         2.4265
  35   0.0000       0.096090         2.6147
  36   0.0000       0.100322         2.7299

MULLIKEN ATOMIC CHARGES
-----------------------
   0 C :   -0.046677
   1 C :   -0.071323
   2 C :   -0.027610
   3 C :   -0.053667
   4 C :   -0.052154
   5 C :   -0.089376
   6 C :   -0.013229
   7 C :    0.089529
   8 O :   -0.316867
   9 C :   -0.037980
  10 C :   -0.049228
  11 H :    0.012880
  12 H :    0.041546
  13 H :    0.039527
  14 H :    0.008835
  15 H :    0.026987
  16 H :    0.041162
  17 H :    0.040129
  18 H :    0.031710
  19 H :    0.019471
  20 H :    0.009425
  21 H :    0.051253
  22 H :    0.146314
  23 H :    0.029572
  24 H :    0.041331
  25 H :    0.031649
  26 H :    0.025737
  27 H :    0.035464
  28 H :    0.035590
Sum of atomic charges:    0.0000000

LOEWDIN ATOMIC CHARGES
----------------------
   0 C :   -0.104787
   1 C :   -0.053391
   2 C :   -0.057646
   3 C :   -0.082753
   4 C :   -0.076167
   5 C :   -0.039239
   6 C :   -0.061920
   7 C :   -0.055619
   8 O :   -0.077386
   9 C :   -0.105212
  10 C :   -0.107135
  11 H :    0.042011
  12 H :    0.051292
  13 H :    0.050886
  14 H :    0.037578
  15 H :    0.042089
  16 H :    0.048295
  17 H :    0.045524
  18 H :    0.049349
  19 H :    0.040631
  20 H :    0.036814
  21 H :    0.056734
  22 H :    0.025469
  23 H :    0.050743
  24 H :    0.049900
  25 H :    0.048163
  26 H :    0.049056
  27 H :    0.048679
  28 H :    0.048044

  Mayer bond orders larger than 0.100000
B(  0-C ,  1-C ) :   1.0352 B(  0-C , 11-H ) :   0.9921 B(  0-C , 12-H ) :   0.9775
B(  0-C , 13-H ) :   0.9762 B(  1-C ,  2-C ) :   1.8902 B(  1-C , 10-C ) :   1.0310
B(  2-C ,  3-C ) :   1.0283 B(  2-C , 14-H ) :   0.9938 B(  3-C ,  4-C ) :   0.9522
B(  3-C , 15-H ) :   0.9951 B(  3-C , 16-H ) :   0.9880 B(  4-C ,  5-C ) :   1.0263
B(  4-C , 17-H ) :   0.9905 B(  4-C , 18-H ) :   0.9894 B(  5-C ,  6-C ) :   1.8868
B(  5-C ,  9-C ) :   1.0322 B(  6-C ,  7-C ) :   1.0315 B(  6-C , 19-H ) :   0.9847
B(  7-C ,  8-O ) :   0.9499 B(  7-C , 20-H ) :   0.9996 B(  7-C , 21-H ) :   0.9934
B(  8-O , 22-H ) :   1.0671 B(  9-C , 23-H ) :   0.9913 B(  9-C , 24-H ) :   0.9776
B(  9-C , 25-H ) :   0.9791 B( 10-C , 26-H ) :   0.9923 B( 10-C , 27-H ) :   0.9800
B( 10-C , 28-H ) :   0.9794

Dispersion correction           -0.029948981
FINAL SINGLE POINT ENERGY       -83.862994807392

DIPOLE MOMENT
-------------

Method             : SCF
Type of density    : Electron Density
Multiplicity       :   1
Irrep              :   0
Energy             :   -83.8330458265329668 Eh
Relativity type    :
Basis              : AO
                                X                 Y                 Z
Electronic contribution:      4.705393509      -0.462600322      -1.322187720
Nuclear contribution   :     -5.221123684      -0.109838416       1.744148551
                        -----------------------------------------
Total Dipole Moment    :     -0.515730174      -0.572438738       0.421960831
                        -----------------------------------------
Magnitude (a.u.)       :      0.878472916
Magnitude (Debye)      :      2.232900702

VIBRATIONAL FREQUENCIES
-----------------------

Scaling factor for frequencies =  1.000000000  (already applied!)

     0:       0.00 cm**-1
     1:       0.00 cm**-1
     2:       0.00 cm**-1
     3:       0.00 cm**-1
     4:       0.00 cm**-1
     5:       0.00 cm**-1
     6:      20.40 cm**-1
     7:      34.77 cm**-1
     8:      51.54 cm**-1
     9:      66.46 cm**-1
    10:      96.17 cm**-1
    11:     133.03 cm**-1
    12:     155.16 cm**-1
    13:     181.30 cm**-1
    14:     199.33 cm**-1
    15:     207.50 cm**-1
    16:     290.76 cm**-1
    17:     314.07 cm**-1
    18:     317.70 cm**-1
    19:     360.11 cm**-1
    20:     383.09 cm**-1
    21:     412.93 cm**-1
    22:     479.39 cm**-1
    23:     497.44 cm**-1
    24:     519.82 cm**-1
    25:     550.31 cm**-1
    26:     606.30 cm**-1
    27:     770.42 cm**-1
    28:     834.21 cm**-1
    29:     845.56 cm**-1
    30:     872.43 cm**-1
    31:     906.05 cm**-1
    32:     985.14 cm**-1
    33:     989.31 cm**-1
    34:    1000.79 cm**-1
    35:    1032.82 cm**-1
    36:    1049.87 cm**-1
    37:    1066.30 cm**-1
    38:    1087.99 cm**-1
    39:    1094.57 cm**-1
    40:    1098.37 cm**-1
    41:    1128.78 cm**-1
    42:    1140.22 cm**-1
    43:    1166.37 cm**-1
    44:    1195.87 cm**-1
    45:    1217.83 cm**-1
    46:    1270.30 cm**-1
    47:    1289.71 cm**-1
    48:    1310.22 cm**-1
    49:    1347.40 cm**-1
    50:    1367.56 cm**-1
    51:    1392.93 cm**-1
    52:    1407.89 cm**-1
    53:    1426.18 cm**-1
    54:    1447.77 cm**-1
    55:    1450.67 cm**-1
    56:    1454.16 cm**-1
    57:    1459.72 cm**-1
    58:    1502.02 cm**-1
    59:    1508.32 cm**-1
    60:    1511.29 cm**-1
    61:    1517.36 cm**-1
    62:    1522.27 cm**-1
    63:    1526.06 cm**-1
    64:    1529.23 cm**-1
    65:    1535.97 cm**-1
    66:    1552.32 cm**-1
    67:    1797.62 cm**-1
    68:    1807.45 cm**-1
    69:    3094.62 cm**-1
    70:    3097.34 cm**-1
    71:    3099.88 cm**-1
    72:    3102.73 cm**-1
    73:    3106.54 cm**-1
    74:    3109.07 cm**-1
    75:    3160.51 cm**-1
    76:    3165.25 cm**-1
    77:    3169.60 cm**-1
    78:    3170.86 cm**-1
    79:    3175.28 cm**-1
    80:    3179.52 cm**-1
    81:    3196.88 cm**-1
    82:    3207.94 cm**-1
    83:    3208.16 cm**-1
    84:    3213.00 cm**-1
    85:    3226.63 cm**-1
    86:    3955.94 cm**-1

IR SPECTRUM
-----------

 Mode   freq       eps      Int      T**2         TX        TY        TZ
       cm**-1   L/(mol*cm) km/mol    a.u.
----------------------------------------------------------------------------
  6:     20.40   0.000072    0.36  0.001094  (-0.021355 -0.006603 -0.024384)
  7:     34.77   0.000099    0.50  0.000888  ( 0.012163 -0.018563 -0.019883)
  8:     51.54   0.000197    1.00  0.001194  ( 0.029706  0.002448  0.017484)
  9:     66.46   0.000175    0.88  0.000822  ( 0.010069  0.019274  0.018683)
 10:     96.17   0.000343    1.74  0.001114  ( 0.015177  0.018074  0.023607)
 11:    133.03   0.000008    0.04  0.000018  (-0.003300  0.000596 -0.002553)
 12:    155.16   0.000132    0.67  0.000266  (-0.013435  0.008841 -0.002764)
 13:    181.30   0.000074    0.37  0.000127  (-0.007342  0.007867 -0.003417)
 14:    199.33   0.000009    0.04  0.000014  (-0.001831 -0.003187 -0.000141)
 15:    207.50   0.000569    2.87  0.000855  (-0.005501  0.022139  0.018292)
 16:    290.76   0.007320   36.99  0.007857  ( 0.049782 -0.067608 -0.028419)
 17:    314.07   0.001634    8.26  0.001623  (-0.017780  0.033728  0.013026)
 18:    317.70   0.012115   61.23  0.011900  (-0.046246  0.083788  0.052357)
 19:    360.11   0.002105   10.64  0.001824  ( 0.000592  0.033982  0.025865)
 20:    383.09   0.000214    1.08  0.000174  ( 0.004710 -0.011102  0.005349)
 21:    412.93   0.001001    5.06  0.000756  ( 0.023254 -0.004847  0.013858)
 22:    479.39   0.000592    2.99  0.000385  (-0.006392 -0.014602 -0.011463)
 23:    497.44   0.000841    4.25  0.000527  ( 0.019868 -0.010800  0.003998)
 24:    519.82   0.000281    1.42  0.000169  (-0.002368  0.007814  0.010101)
 25:    550.31   0.000472    2.39  0.000268  (-0.003638 -0.015096  0.005177)
 26:    606.30   0.001705    8.62  0.000878  (-0.024071  0.010049 -0.014039)
 27:    770.42   0.000226    1.14  0.000092  ( 0.002165  0.009315  0.000245)
 28:    834.21   0.000589    2.98  0.000220  (-0.011419 -0.002572 -0.009137)
 29:    845.56   0.001105    5.58  0.000408  (-0.007506 -0.008079 -0.016914)
 30:    872.43   0.000422    2.13  0.000151  ( 0.007289  0.009734 -0.001720)
 31:    906.05   0.004574   23.12  0.001575  ( 0.028393  0.009168  0.026177)
 32:    985.14   0.000701    3.54  0.000222  ( 0.014237  0.004394  0.000370)
 33:    989.31   0.007338   37.08  0.002315  (-0.041475 -0.018930 -0.015369)
 34:   1000.79   0.001392    7.03  0.000434  (-0.015395 -0.012382  0.006613)
 35:   1032.82   0.000591    2.99  0.000179  (-0.007850 -0.005135 -0.009515)
 36:   1049.87   0.001938    9.79  0.000576  (-0.014146 -0.019049  0.003602)
 37:   1066.30   0.000108    0.54  0.000031  (-0.003084 -0.002869  0.003706)
 38:   1087.99   0.007507   37.94  0.002153  ( 0.035284  0.027767  0.011717)
 39:   1094.57   0.017026   86.04  0.004854  (-0.056398 -0.039767 -0.009592)
 40:   1098.37   0.000045    0.23  0.000013  (-0.000385  0.002301  0.002690)
 41:   1128.78   0.000033    0.17  0.000009  ( 0.002101 -0.001150  0.001840)
 42:   1140.22   0.005370   27.14  0.001470  (-0.013302 -0.035000 -0.008222)
 43:   1166.37   0.001953    9.87  0.000523  ( 0.022790  0.000047 -0.001779)
 44:   1195.87   0.001025    5.18  0.000267  (-0.005752  0.011521  0.010076)
 45:   1217.83   0.001211    6.12  0.000310  (-0.011513 -0.013083 -0.002588)
 46:   1270.30   0.000580    2.93  0.000143  ( 0.010121  0.002318  0.005895)
 47:   1289.71   0.000926    4.68  0.000224  ( 0.014343 -0.003799 -0.002001)
 48:   1310.22   0.000259    1.31  0.000062  ( 0.006970 -0.002229 -0.002833)
 49:   1347.40   0.000251    1.27  0.000058  ( 0.007046  0.002437 -0.001561)
 50:   1367.56   0.000404    2.04  0.000092  (-0.004521 -0.008096  0.002489)
 51:   1392.93   0.002779   14.04  0.000623  ( 0.012804  0.021174 -0.003204)
 52:   1407.89   0.004587   23.18  0.001017  ( 0.029899  0.010289 -0.004117)
 53:   1426.18   0.002250   11.37  0.000492  (-0.017327 -0.013703 -0.002076)
 54:   1447.77   0.002397   12.11  0.000517  ( 0.022303  0.004377  0.000299)
 55:   1450.67   0.001444    7.30  0.000311  (-0.011513 -0.008971  0.009874)
 56:   1454.16   0.007128   36.02  0.001530  (-0.005466 -0.038135 -0.006738)
 57:   1459.72   0.002359   11.92  0.000504  (-0.000501  0.019222 -0.011601)
 58:   1502.02   0.000108    0.55  0.000022  ( 0.003018  0.002832  0.002302)
 59:   1508.32   0.000964    4.87  0.000199  ( 0.010344  0.001773 -0.009449)
 60:   1511.29   0.001536    7.76  0.000317  ( 0.014353  0.006032  0.008648)
 61:   1517.36   0.001109    5.60  0.000228  (-0.006693  0.002226  0.013353)
 62:   1522.27   0.004840   24.46  0.000992  (-0.018838 -0.007892 -0.023981)
 63:   1526.06   0.002424   12.25  0.000496  (-0.004888 -0.019543  0.009483)
 64:   1529.23   0.000946    4.78  0.000193  ( 0.013664 -0.002284  0.001079)
 65:   1535.97   0.001428    7.22  0.000290  ( 0.004342 -0.003338 -0.016131)
 66:   1552.32   0.001600    8.08  0.000322  (-0.003004  0.010030  0.014558)
 67:   1797.62   0.003524   17.81  0.000612  ( 0.015508  0.018249 -0.006190)
 68:   1807.45   0.001005    5.08  0.000173  (-0.006557  0.011422 -0.000032)
 69:   3094.62   0.006352   32.10  0.000641  (-0.020638  0.000385  0.014646)
 70:   3097.34   0.002290   11.57  0.000231  ( 0.000345  0.015186 -0.000019)
 71:   3099.88   0.011930   60.29  0.001201  (-0.016325  0.030548 -0.001147)
 72:   3102.73   0.002862   14.46  0.000288  (-0.005306  0.010434 -0.012280)
 73:   3106.54   0.006254   31.60  0.000628  (-0.009744 -0.003994 -0.022745)
 74:   3109.07   0.006641   33.56  0.000667  (-0.022740  0.005037  0.011138)
 75:   3160.51   0.001473    7.44  0.000145  (-0.002955 -0.011237  0.003230)
 76:   3165.25   0.003301   16.68  0.000325  (-0.004724  0.002011  0.017293)
 77:   3169.60   0.000083    0.42  0.000008  (-0.001619 -0.000161 -0.002352)
 78:   3170.86   0.004047   20.45  0.000398  (-0.011758 -0.006296 -0.014847)
 79:   3175.28   0.001783    9.01  0.000175  ( 0.009052  0.000355  0.009651)
 80:   3179.52   0.001917    9.69  0.000188  (-0.002897  0.013404 -0.000270)
 81:   3196.88   0.003480   17.59  0.000340  ( 0.006941  0.013801 -0.010053)
 82:   3207.94   0.003307   16.71  0.000322  (-0.000219  0.016242 -0.007606)
 83:   3208.16   0.001112    5.62  0.000108  (-0.003691 -0.007907  0.005660)
 84:   3213.00   0.005826   29.44  0.000566  ( 0.018951 -0.005183 -0.013412)
 85:   3226.63   0.003341   16.88  0.000323  ( 0.013605  0.001708 -0.011624)
 86:   3955.94   0.008580   43.36  0.000677  (-0.014116  0.001984 -0.021763)

--------------------------
THERMOCHEMISTRY AT 298.15K
--------------------------

Temperature         ...   298.15 K
Pressure            ...     1.00 atm
Total Mass          ...   154.25 AMU
Quasi RRHO          ...     True
Cut-Off Frequency   ...     1.00 cm^-1

Throughout the following assumptions are being made:
  (1) The electronic state is orbitally nondegenerate
  (2) There are no thermally accessible electronically excited states
  (3) Hindered rotations indicated by low frequency modes are not
      treated as such but are treated as vibrations and this may
      cause some error
  (4) All equations used are the standard statistical mechanics
      equations for an ideal gas
  (5) All vibrations are strictly harmonic

freq.      20.40  E(vib)   ...       0.56
freq.      34.77  E(vib)   ...       0.54
freq.      51.54  E(vib)   ...       0.52
freq.      66.46  E(vib)   ...       0.50
freq.      96.17  E(vib)   ...       0.47
freq.     133.03  E(vib)   ...       0.42
freq.     155.16  E(vib)   ...       0.40
freq.     181.30  E(vib)   ...       0.37
freq.     199.33  E(vib)   ...       0.35
freq.     207.50  E(vib)   ...       0.34
freq.     290.76  E(vib)   ...       0.27
freq.     314.07  E(vib)   ...       0.25
freq.     317.70  E(vib)   ...       0.25
freq.     360.11  E(vib)   ...       0.22
freq.     383.09  E(vib)   ...       0.20
freq.     412.93  E(vib)   ...       0.19
freq.     479.39  E(vib)   ...       0.15
freq.     497.44  E(vib)   ...       0.14
freq.     519.82  E(vib)   ...       0.13
freq.     550.31  E(vib)   ...       0.12
freq.     606.30  E(vib)   ...       0.10
freq.     770.42  E(vib)   ...       0.05
freq.     834.21  E(vib)   ...       0.04
freq.     845.56  E(vib)   ...       0.04
freq.     872.43  E(vib)   ...       0.04
freq.     906.05  E(vib)   ...       0.03
freq.     985.14  E(vib)   ...       0.02
freq.     989.31  E(vib)   ...       0.02
freq.    1000.79  E(vib)   ...       0.02
freq.    1032.82  E(vib)   ...       0.02
freq.    1049.87  E(vib)   ...       0.02
freq.    1066.30  E(vib)   ...       0.02
freq.    1087.99  E(vib)   ...       0.02
freq.    1094.57  E(vib)   ...       0.02
freq.    1098.37  E(vib)   ...       0.02
freq.    1128.78  E(vib)   ...       0.01
freq.    1140.22  E(vib)   ...       0.01
freq.    1166.37  E(vib)   ...       0.01
freq.    1195.87  E(vib)   ...       0.01
freq.    1217.83  E(vib)   ...       0.01
freq.    1270.30  E(vib)   ...       0.01
freq.    1289.71  E(vib)   ...       0.01
freq.    1310.22  E(vib)   ...       0.01
freq.    1347.40  E(vib)   ...       0.01
freq.    1367.56  E(vib)   ...       0.01
freq.    1392.93  E(vib)   ...       0.00
freq.    1407.89  E(vib)   ...       0.00
freq.    1426.18  E(vib)   ...       0.00
freq.    1447.77  E(vib)   ...       0.00
freq.    1450.67  E(vib)   ...       0.00
freq.    1454.16  E(vib)   ...       0.00
freq.    1459.72  E(vib)   ...       0.00
freq.    1502.02  E(vib)   ...       0.00
freq.    1508.32  E(vib)   ...       0.00
freq.    1511.29  E(vib)   ...       0.00
freq.    1517.36  E(vib)   ...       0.00
freq.    1522.27  E(vib)   ...       0.00
freq.    1526.06  E(vib)   ...       0.00
freq.    1529.23  E(vib)   ...       0.00
freq.    1535.97  E(vib)   ...       0.00
freq.    1552.32  E(vib)   ...       0.00
freq.    1797.62  E(vib)   ...       0.00
freq.    1807.45  E(vib)   ...       0.00
freq.    3094.62  E(vib)   ...       0.00
freq.    3097.34  E(vib)   ...       0.00
freq.    3099.88  E(vib)   ...       0.00
freq.    3102.73  E(vib)   ...       0.00
freq.    3106.54  E(vib)   ...       0.00
freq.    3109.07  E(vib)   ...       0.00
freq.    3160.51  E(vib)   ...       0.00
freq.    3165.25  E(vib)   ...       0.00
freq.    3169.60  E(vib)   ...       0.00
freq.    3170.86  E(vib)   ...       0.00
freq.    3175.28  E(vib)   ...       0.00
freq.    3179.52  E(vib)   ...       0.00
freq.    3196.88  E(vib)   ...       0.00
freq.    3207.94  E(vib)   ...       0.00
freq.    3208.16  E(vib)   ...       0.00
freq.    3213.00  E(vib)   ...       0.00
freq.    3226.63  E(vib)   ...       0.00
freq.    3955.94  E(vib)   ...       0.00

------------
INNER ENERGY
------------

The inner energy is: U= E(el) + E(ZPE) + E(vib) + E(rot) + E(trans)
    E(el)   - is the total energy from the electronic structure calculation
              = E(kin-el) + E(nuc-el) + E(el-el) + E(nuc-nuc)
    E(ZPE)  - the the zero temperature vibrational energy from the frequency calculation
    E(vib)  - the the finite temperature correction to E(ZPE) due to population
              of excited vibrational states
    E(rot)  - is the rotational thermal energy
    E(trans)- is the translational thermal energy

Summary of contributions to the inner energy U:
Electronic energy                ...    -83.86299481 Eh
Zero point energy                ...      0.26639677 Eh     167.17 kcal/mol
Thermal vibrational correction   ...      0.01123216 Eh       7.05 kcal/mol
Thermal rotational correction    ...      0.00141627 Eh       0.89 kcal/mol
Thermal translational correction ...      0.00141627 Eh       0.89 kcal/mol
-----------------------------------------------------------------------
Total thermal energy                    -83.58253333 Eh

Summary of corrections to the electronic energy:
(perhaps to be used in another calculation)
Total thermal correction                  0.01406471 Eh       8.83 kcal/mol
Non-thermal (ZPE) correction              0.26639677 Eh     167.17 kcal/mol
-----------------------------------------------------------------------
Total correction                          0.28046148 Eh     175.99 kcal/mol

--------
ENTHALPY
--------

The enthalpy is H = U + kB*T
                kB is Boltzmann's constant
Total thermal energy              ...    -83.58253333 Eh
Thermal Enthalpy correction       ...      0.00094421 Eh       0.59 kcal/mol
-----------------------------------------------------------------------
Total Enthalpy                    ...    -83.58158912 Eh

Note: Only C1 symmetry has been detected, increase convergence thresholds
      if your molecule has a higher symmetry. Symmetry factor of 1.0 is
      used for the rotational entropy correction.

Note: Rotational entropy computed according to Herzberg
Infrared and Raman Spectra, Chapter V,1, Van Nostrand Reinhold, 1945
Point Group:  C1, Symmetry Number:   1
Rotational constants in cm-1:     0.050282     0.016338     0.013065

Vibrational entropy computed according to the QRRHO of S. Grimme
Chem.Eur.J. 2012 18 9955 using a reference frequency of 100.0 cm-1

-------
ENTROPY
-------

                             ****ORCA TERMINATED NORMALLY****
TOTAL RUN TIME: 0 days 0 hours 28 minutes 13 seconds 229 msec
