                         Program Version 6.0.1  -  RELEASE   -
|  1> ! wB97X-3c OPT FREQ TightSCF
|  2> %pal
|  3>   nprocs 40
|  4> end
|  5> * xyz 0 1
|  6> C     -2.329289     0.383336     0.602142
|  7> C     -1.121681     0.242196    -0.357498
|  8> C     -0.001925     1.312503    -0.112247
|  9> C      0.372864     1.403730     1.382579
| 10> C      1.072824     0.060016     1.642869
| 11> C      1.094307    -0.593085     0.240314
| 12> C      1.240635     0.623240    -0.650822
| 13> C     -0.343994    -1.093766    -0.093483
| 14> O     -0.387555    -1.992768    -1.180462
| 15> C      2.206300    -1.638635     0.081595
| 16> C     -1.669504     0.375549    -1.802721
| 17> H     -2.707383     1.428129     0.595947
| 18> H     -3.154301    -0.291485     0.287392
| 19> H     -2.074538     0.099735     1.644167
| 20> H     -0.203550     2.304680    -0.571544
| 21> H     -0.487334     1.580958     2.057747
| 22> H      1.089553     2.241489     1.536259
| 23> H      2.103786     0.237713     2.022504
| 24> H      0.517768    -0.553176     2.385904
| 25> H      2.176879     1.197911    -0.454491
| 26> H      1.198726     0.393755    -1.735873
| 27> H     -0.756584    -1.639325     0.783888
| 28> H      0.157782    -1.628510    -1.922673
| 29> H      2.275344    -1.990330    -0.968638
| 30> H      2.001969    -2.508870     0.740422
| 31> H      3.189043    -1.202414     0.360588
| 32> H     -2.382682    -0.446815    -2.026150
| 33> H     -0.869247     0.353549    -2.568490
| 34> H     -2.208214     1.340689    -1.919224
| 35> *
| 36>
| 37>                          ****END OF INPUT****
 Total Charge           Charge          ....    0
 Multiplicity           Mult            ....    1
 Number of Electrons    NEL             ....   64
Dispersion correction           -0.037795952
FINAL SINGLE POINT ENERGY       -83.904153399532
Dispersion correction             ... done (  0.1 sec)
Dispersion correction           -0.038259040
FINAL SINGLE POINT ENERGY       -83.913678884846
Dispersion correction             ... done (  0.1 sec)
Dispersion correction           -0.038318282
FINAL SINGLE POINT ENERGY       -83.914255817443
Dispersion correction             ... done (  0.1 sec)
FINAL SINGLE POINT ENERGY       -83.914458027363
FINAL SINGLE POINT ENERGY       -83.914515912440
FINAL SINGLE POINT ENERGY       -83.914562130294
FINAL SINGLE POINT ENERGY       -83.914586956244
Dispersion correction             ... done (  0.1 sec)
Dispersion correction           -0.038311003
FINAL SINGLE POINT ENERGY       -83.914599198032
Dispersion correction             ... done (  0.1 sec)
Dispersion correction           -0.038311144
FINAL SINGLE POINT ENERGY       -83.914603518686
Dispersion correction             ... done (  0.1 sec)
                    ***********************HURRAY********************

CARTESIAN COORDINATES (ANGSTROEM)
---------------------------------
  C     -2.273611    0.357244    0.612342
  C     -1.096165    0.258667   -0.347378
  C     -0.002188    1.330478   -0.120092
  C      0.366127    1.425102    1.357965
  C      1.031913    0.061658    1.621163
  C      1.119990   -0.593216    0.231191
  C      1.244919    0.639320   -0.668557
  C     -0.300543   -1.072376   -0.122894
  O     -0.342815   -1.973956   -1.205535
  C      2.187307   -1.653439    0.126447
  C     -1.643172    0.384426   -1.764990
  H     -2.725957    1.349692    0.580652
  H     -3.040412   -0.367140    0.336318
  H     -1.988720    0.149967    1.641953
  H     -0.259086    2.289618   -0.570071
  H     -0.482533    1.627700    2.006442
  H      1.077068    2.238253    1.505606
  H      2.030090    0.180521    2.042912
  H      0.465885   -0.559009    2.317425
  H      2.160788    1.204512   -0.489534
  H      1.200060    0.406824   -1.733186
  H     -0.725857   -1.638247    0.706024
  H     -0.015599   -1.548883   -1.998325
  H      2.231236   -2.085733   -0.870947
  H      1.995086   -2.468238    0.825340
  H      3.165280   -1.233240    0.361763
  H     -2.299212   -0.448352   -2.010781
  H     -0.860562    0.431787   -2.521984
  H     -2.219318    1.306060   -1.849270

 Multiplicity           Mult            ....    1
 Number of Electrons    NEL             ....   64
 Basis Dimension        Dim             ....  233

ORBITAL ENERGIES
----------------

  NO   OCC          E(Eh)            E(eV)
   0   2.0000      -1.147857       -31.2348
   1   2.0000      -1.024172       -27.8691
   2   2.0000      -0.932219       -25.3670
   3   2.0000      -0.884759       -24.0755
   4   2.0000      -0.853112       -23.2144
   5   2.0000      -0.822739       -22.3879
   6   2.0000      -0.809783       -22.0353
   7   2.0000      -0.777158       -21.1475
   8   2.0000      -0.715416       -19.4675
   9   2.0000      -0.674191       -18.3457
  10   2.0000      -0.664011       -18.0687
  11   2.0000      -0.617813       -16.8115
  12   2.0000      -0.603856       -16.4318
  13   2.0000      -0.580803       -15.8045
  14   2.0000      -0.572839       -15.5877
  15   2.0000      -0.551889       -15.0177
  16   2.0000      -0.529172       -14.3995
  17   2.0000      -0.519396       -14.1335
  18   2.0000      -0.508737       -13.8434
  19   2.0000      -0.503515       -13.7014
  20   2.0000      -0.493849       -13.4383
  21   2.0000      -0.488177       -13.2840
  22   2.0000      -0.471834       -12.8393
  23   2.0000      -0.453386       -12.3373
  24   2.0000      -0.452189       -12.3047
  25   2.0000      -0.447693       -12.1823
  26   2.0000      -0.437444       -11.9034
  27   2.0000      -0.422966       -11.5095
  28   2.0000      -0.419706       -11.4208
  29   2.0000      -0.405260       -11.0277
  30   2.0000      -0.392114       -10.6700
  31   2.0000      -0.361902        -9.8479
  32   0.0000       0.083411         2.2697
  33   0.0000       0.094016         2.5583
  34   0.0000       0.099551         2.7089
  35   0.0000       0.103051         2.8042
  36   0.0000       0.121440         3.3046

MULLIKEN ATOMIC CHARGES
-----------------------
   0 C :   -0.006176
   1 C :   -0.214419
   2 C :   -0.019758
   3 C :   -0.029408
   4 C :   -0.013885
   5 C :   -0.196722
   6 C :    0.005540
   7 C :    0.189106
   8 O :   -0.315785
   9 C :    0.008000
  10 C :   -0.016325
  11 H :    0.028426
  12 H :    0.033870
  13 H :    0.018976
  14 H :    0.032411
  15 H :    0.026725
  16 H :    0.032378
  17 H :    0.031024
  18 H :    0.025459
  19 H :    0.032220
  20 H :    0.010435
  21 H :    0.029131
  22 H :    0.145129
  23 H :    0.025180
  24 H :    0.030287
  25 H :    0.024335
  26 H :    0.044950
  27 H :    0.009693
  28 H :    0.029204
Sum of atomic charges:    0.0000000

LOEWDIN ATOMIC CHARGES
----------------------
   0 C :   -0.106507
   1 C :   -0.058095
   2 C :   -0.048904
   3 C :   -0.067003
   4 C :   -0.056098
   5 C :   -0.071500
   6 C :   -0.063663
   7 C :   -0.010394
   8 O :   -0.054278
   9 C :   -0.105047
  10 C :   -0.106188
  11 H :    0.044607
  12 H :    0.048975
  13 H :    0.039892
  14 H :    0.038964
  15 H :    0.036572
  16 H :    0.042344
  17 H :    0.042665
  18 H :    0.037643
  19 H :    0.045988
  20 H :    0.033025
  21 H :    0.050313
  22 H :    0.018437
  23 H :    0.043843
  24 H :    0.049381
  25 H :    0.043908
  26 H :    0.048088
  27 H :    0.035676
  28 H :    0.047355

  Mayer bond orders larger than 0.100000
B(  0-C ,  1-C ) :   1.0194 B(  0-C , 11-H ) :   0.9900 B(  0-C , 12-H ) :   0.9904
B(  0-C , 13-H ) :   0.9932 B(  1-C ,  2-C ) :   0.9710 B(  1-C ,  7-C ) :   0.9542
B(  1-C , 10-C ) :   1.0200 B(  2-C ,  3-C ) :   0.9977 B(  2-C ,  6-C ) :   0.9905
B(  2-C , 14-H ) :   1.0019 B(  3-C ,  4-C ) :   0.9804 B(  3-C , 15-H ) :   1.0021
B(  3-C , 16-H ) :   0.9991 B(  4-C ,  5-C ) :   0.9908 B(  4-C , 17-H ) :   0.9988
B(  4-C , 18-H ) :   0.9976 B(  5-C ,  6-C ) :   0.9672 B(  5-C ,  7-C ) :   0.9704
B(  5-C ,  9-C ) :   1.0476 B(  6-C , 19-H ) :   1.0000 B(  6-C , 20-H ) :   1.0022
B(  7-C ,  8-O ) :   0.9709 B(  7-C , 21-H ) :   1.0156 B(  8-O , 22-H ) :   1.0583
B(  9-C , 23-H ) :   0.9833 B(  9-C , 24-H ) :   0.9835 B(  9-C , 25-H ) :   0.9856
B( 10-C , 26-H ) :   0.9872 B( 10-C , 27-H ) :   0.9927 B( 10-C , 28-H ) :   0.9912

Dispersion correction           -0.038309587
FINAL SINGLE POINT ENERGY       -83.914604534135

DIPOLE MOMENT
-------------

Method             : SCF
Type of density    : Electron Density
Multiplicity       :   1
Irrep              :   0
Energy             :   -83.8762949470488621 Eh
Relativity type    :
Basis              : AO
                                X                 Y                 Z
Electronic contribution:      1.271689785      -0.528126872      -0.045648647
Nuclear contribution   :     -1.086700205       1.184649760       0.042376722
                        -----------------------------------------
Total Dipole Moment    :      0.184989580       0.656522888      -0.003271925
                        -----------------------------------------
Magnitude (a.u.)       :      0.682095413
Magnitude (Debye)      :      1.733748757

VIBRATIONAL FREQUENCIES
-----------------------

Scaling factor for frequencies =  1.000000000  (already applied!)

     0:       0.00 cm**-1
     1:       0.00 cm**-1
     2:       0.00 cm**-1
     3:       0.00 cm**-1
     4:       0.00 cm**-1
     5:       0.00 cm**-1
     6:      91.32 cm**-1
     7:     207.59 cm**-1
     8:     226.03 cm**-1
     9:     235.61 cm**-1
    10:     254.98 cm**-1
    11:     272.26 cm**-1
    12:     283.07 cm**-1
    13:     305.23 cm**-1
    14:     326.52 cm**-1
    15:     342.74 cm**-1
    16:     356.93 cm**-1
    17:     387.52 cm**-1
    18:     432.99 cm**-1
    19:     446.20 cm**-1
    20:     506.71 cm**-1
    21:     520.02 cm**-1
    22:     592.97 cm**-1
    23:     647.68 cm**-1
    24:     732.97 cm**-1
    25:     813.35 cm**-1
    26:     835.89 cm**-1
    27:     858.24 cm**-1
    28:     896.38 cm**-1
    29:     938.00 cm**-1
    30:     940.36 cm**-1
    31:     963.87 cm**-1
    32:     982.59 cm**-1
    33:     986.59 cm**-1
    34:    1003.62 cm**-1
    35:    1016.17 cm**-1
    36:    1031.87 cm**-1
    37:    1038.80 cm**-1
    38:    1066.65 cm**-1
    39:    1107.61 cm**-1
    40:    1154.92 cm**-1
    41:    1159.74 cm**-1
    42:    1192.39 cm**-1
    43:    1202.02 cm**-1
    44:    1217.81 cm**-1
    45:    1249.62 cm**-1
    46:    1275.86 cm**-1
    47:    1280.56 cm**-1
    48:    1299.53 cm**-1
    49:    1308.19 cm**-1
    50:    1316.26 cm**-1
    51:    1331.64 cm**-1
    52:    1343.59 cm**-1
    53:    1367.61 cm**-1
    54:    1393.10 cm**-1
    55:    1405.13 cm**-1
    56:    1434.46 cm**-1
    57:    1449.43 cm**-1
    58:    1451.70 cm**-1
    59:    1468.45 cm**-1
    60:    1514.17 cm**-1
    61:    1516.06 cm**-1
    62:    1520.05 cm**-1
    63:    1523.73 cm**-1
    64:    1529.35 cm**-1
    65:    1534.94 cm**-1
    66:    1538.37 cm**-1
    67:    1548.40 cm**-1
    68:    1564.02 cm**-1
    69:    3093.86 cm**-1
    70:    3099.39 cm**-1
    71:    3100.69 cm**-1
    72:    3109.95 cm**-1
    73:    3114.46 cm**-1
    74:    3125.83 cm**-1
    75:    3137.20 cm**-1
    76:    3148.37 cm**-1
    77:    3163.14 cm**-1
    78:    3167.91 cm**-1
    79:    3178.87 cm**-1
    80:    3183.32 cm**-1
    81:    3183.67 cm**-1
    82:    3190.20 cm**-1
    83:    3199.43 cm**-1
    84:    3202.92 cm**-1
    85:    3203.04 cm**-1
    86:    3961.79 cm**-1

IR SPECTRUM
-----------

 Mode   freq       eps      Int      T**2         TX        TY        TZ
       cm**-1   L/(mol*cm) km/mol    a.u.
----------------------------------------------------------------------------
  6:     91.32   0.000191    0.97  0.000653  (-0.003237 -0.000229 -0.025345)
  7:    207.59   0.000757    3.83  0.001138  (-0.030330  0.012385 -0.008053)
  8:    226.03   0.000800    4.04  0.001104  (-0.029751  0.009225 -0.011560)
  9:    235.61   0.000882    4.46  0.001168  ( 0.025836 -0.013529  0.017821)
 10:    254.98   0.014662   74.09  0.017944  ( 0.119501 -0.045029  0.040446)
 11:    272.26   0.009738   49.21  0.011161  (-0.097405  0.037900 -0.015401)
 12:    283.07   0.000017    0.08  0.000018  ( 0.002587  0.003350 -0.000653)
 13:    305.23   0.000198    1.00  0.000202  (-0.006006  0.009188  0.009033)
 14:    326.52   0.000306    1.54  0.000292  (-0.014399  0.008887 -0.002389)
 15:    342.74   0.000369    1.87  0.000336  (-0.012729  0.002311 -0.012995)
 16:    356.93   0.000572    2.89  0.000500  (-0.019031  0.008432 -0.008174)
 17:    387.52   0.000127    0.64  0.000102  (-0.005309  0.007624  0.004014)
 18:    432.99   0.000452    2.28  0.000325  (-0.014720  0.007667 -0.007068)
 19:    446.20   0.000308    1.56  0.000216  ( 0.013752  0.000362  0.005148)
 20:    506.71   0.000088    0.44  0.000054  (-0.006730  0.002889 -0.000630)
 21:    520.02   0.000783    3.95  0.000470  ( 0.020221 -0.006462  0.004351)
 22:    592.97   0.000099    0.50  0.000052  (-0.001809 -0.003196 -0.006215)
 23:    647.68   0.000033    0.16  0.000016  (-0.003130  0.002341 -0.000660)
 24:    732.97   0.000163    0.82  0.000069  (-0.000909  0.001472  0.008148)
 25:    813.35   0.001754    8.86  0.000673  ( 0.009847 -0.014940 -0.018784)
 26:    835.89   0.001143    5.78  0.000427  ( 0.017375  0.003242  0.010690)
 27:    858.24   0.000197    1.00  0.000072  ( 0.005942 -0.005846  0.001479)
 28:    896.38   0.000618    3.13  0.000215  ( 0.001550 -0.007887 -0.012277)
 29:    938.00   0.000111    0.56  0.000037  (-0.005448 -0.002096 -0.001651)
 30:    940.36   0.000549    2.78  0.000182  (-0.001965 -0.003701 -0.012834)
 31:    963.87   0.001061    5.36  0.000343  ( 0.014360 -0.011104  0.003733)
 32:    982.59   0.000875    4.42  0.000278  ( 0.003096  0.003001  0.016103)
 33:    986.59   0.000213    1.08  0.000067  (-0.001735 -0.003216 -0.007348)
 34:   1003.62   0.000384    1.94  0.000119  (-0.010044  0.003617 -0.002327)
 35:   1016.17   0.000628    3.17  0.000193  (-0.013021 -0.003766 -0.003025)
 36:   1031.87   0.000601    3.04  0.000182  ( 0.006316  0.011807  0.001553)
 37:   1038.80   0.000218    1.10  0.000066  ( 0.005153  0.006084 -0.001418)
 38:   1066.65   0.000685    3.46  0.000200  ( 0.003031  0.009931  0.009626)
 39:   1107.61   0.007068   35.72  0.001991  (-0.002867 -0.033592 -0.029236)
 40:   1154.92   0.006903   34.89  0.001865  ( 0.006939  0.036055  0.022742)
 41:   1159.74   0.010653   53.83  0.002866  ( 0.000298 -0.039257 -0.036404)
 42:   1192.39   0.000649    3.28  0.000170  ( 0.005109  0.007014  0.009727)
 43:   1202.02   0.002852   14.41  0.000740  ( 0.011014  0.014194  0.020438)
 44:   1217.81   0.002104   10.63  0.000539  ( 0.003842 -0.020401 -0.010405)
 45:   1249.62   0.000613    3.10  0.000153  (-0.000303 -0.009388 -0.008060)
 46:   1275.86   0.000420    2.12  0.000103  (-0.009402  0.001965  0.003242)
 47:   1280.56   0.000748    3.78  0.000182  (-0.004396 -0.007825 -0.010089)
 48:   1299.53   0.000860    4.35  0.000207  (-0.001049  0.013615  0.004478)
 49:   1308.19   0.000620    3.13  0.000148  (-0.001560 -0.006866 -0.009912)
 50:   1316.26   0.000843    4.26  0.000200  (-0.000506 -0.005268 -0.013108)
 51:   1331.64   0.000348    1.76  0.000082  (-0.000077  0.006664  0.006102)
 52:   1343.59   0.000128    0.64  0.000030  ( 0.003284  0.003262  0.002863)
 53:   1367.61   0.000226    1.14  0.000052  ( 0.001983 -0.005424  0.004279)
 54:   1393.10   0.000169    0.86  0.000038  (-0.002579 -0.005045 -0.002410)
 55:   1405.13   0.000285    1.44  0.000063  ( 0.005122 -0.006051  0.000722)
 56:   1434.46   0.002461   12.44  0.000535  ( 0.006663  0.000857 -0.022144)
 57:   1449.43   0.003193   16.14  0.000687  ( 0.024987 -0.006605  0.004411)
 58:   1451.70   0.001865    9.42  0.000401  ( 0.003011  0.016657  0.010694)
 59:   1468.45   0.003961   20.02  0.000842  (-0.002037  0.024321  0.015685)
 60:   1514.17   0.000835    4.22  0.000172  (-0.002636 -0.011149 -0.006383)
 61:   1516.06   0.000267    1.35  0.000055  (-0.002924 -0.003350  0.005941)
 62:   1520.05   0.001318    6.66  0.000271  ( 0.006685  0.006286 -0.013653)
 63:   1523.73   0.001244    6.29  0.000255  (-0.006830 -0.013463  0.005190)
 64:   1529.35   0.002214   11.19  0.000452  ( 0.010357 -0.000345  0.018558)
 65:   1534.94   0.000609    3.08  0.000124  ( 0.004616 -0.005654  0.008405)
 66:   1538.37   0.004350   21.98  0.000882  (-0.008117  0.014921  0.024368)
 67:   1548.40   0.003865   19.53  0.000779  (-0.016873 -0.022096  0.002460)
 68:   1564.02   0.001231    6.22  0.000246  (-0.011990  0.000257 -0.010089)
 69:   3093.86   0.005904   29.84  0.000595  (-0.018943  0.002137  0.015234)
 70:   3099.39   0.005570   28.15  0.000561  (-0.018109  0.015153 -0.001805)
 71:   3100.69   0.004771   24.11  0.000480  ( 0.016535 -0.004887  0.013521)
 72:   3109.95   0.008238   41.63  0.000827  (-0.008051  0.017168 -0.021613)
 73:   3114.46   0.007171   36.24  0.000718  (-0.019564  0.002876  0.018097)
 74:   3125.83   0.006878   34.76  0.000687  ( 0.007954  0.010939  0.022444)
 75:   3137.20   0.005840   29.51  0.000581  (-0.004890 -0.014857  0.018337)
 76:   3148.37   0.007594   38.38  0.000753  (-0.004049  0.026621 -0.005260)
 77:   3163.14   0.002970   15.01  0.000293  ( 0.012398  0.011800  0.000213)
 78:   3167.91   0.005218   26.37  0.000514  ( 0.015288  0.006948  0.015234)
 79:   3178.87   0.002557   12.92  0.000251  (-0.004596 -0.015159  0.000200)
 80:   3183.32   0.005161   26.08  0.000506  ( 0.017312 -0.003775 -0.013856)
 81:   3183.67   0.003993   20.18  0.000391  ( 0.003738  0.018773  0.005005)
 82:   3190.20   0.005673   28.67  0.000555  ( 0.023406 -0.002612 -0.000499)
 83:   3199.43   0.003998   20.20  0.000390  (-0.000084  0.004201 -0.019295)
 84:   3202.92   0.002683   13.56  0.000261  (-0.010711 -0.011236  0.004519)
 85:   3203.04   0.003068   15.50  0.000299  ( 0.003191  0.005518  0.016069)
 86:   3961.79   0.005542   28.01  0.000437  (-0.003977 -0.004065  0.020104)

--------------------------
THERMOCHEMISTRY AT 298.15K
--------------------------

Temperature         ...   298.15 K
Pressure            ...     1.00 atm
Total Mass          ...   154.25 AMU
Quasi RRHO          ...     True
Cut-Off Frequency   ...     1.00 cm^-1

Throughout the following assumptions are being made:
  (1) The electronic state is orbitally nondegenerate
  (2) There are no thermally accessible electronically excited states
  (3) Hindered rotations indicated by low frequency modes are not
      treated as such but are treated as vibrations and this may
      cause some error
  (4) All equations used are the standard statistical mechanics
      equations for an ideal gas
  (5) All vibrations are strictly harmonic

freq.      91.32  E(vib)   ...       0.47
freq.     207.59  E(vib)   ...       0.34
freq.     226.03  E(vib)   ...       0.33
freq.     235.61  E(vib)   ...       0.32
freq.     254.98  E(vib)   ...       0.30
freq.     272.26  E(vib)   ...       0.29
freq.     283.07  E(vib)   ...       0.28
freq.     305.23  E(vib)   ...       0.26
freq.     326.52  E(vib)   ...       0.24
freq.     342.74  E(vib)   ...       0.23
freq.     356.93  E(vib)   ...       0.22
freq.     387.52  E(vib)   ...       0.20
freq.     432.99  E(vib)   ...       0.17
freq.     446.20  E(vib)   ...       0.17
freq.     506.71  E(vib)   ...       0.14
freq.     520.02  E(vib)   ...       0.13
freq.     592.97  E(vib)   ...       0.10
freq.     647.68  E(vib)   ...       0.09
freq.     732.97  E(vib)   ...       0.06
freq.     813.35  E(vib)   ...       0.05
freq.     835.89  E(vib)   ...       0.04
freq.     858.24  E(vib)   ...       0.04
freq.     896.38  E(vib)   ...       0.03
freq.     938.00  E(vib)   ...       0.03
freq.     940.36  E(vib)   ...       0.03
freq.     963.87  E(vib)   ...       0.03
freq.     982.59  E(vib)   ...       0.02
freq.     986.59  E(vib)   ...       0.02
freq.    1003.62  E(vib)   ...       0.02
freq.    1016.17  E(vib)   ...       0.02
freq.    1031.87  E(vib)   ...       0.02
freq.    1038.80  E(vib)   ...       0.02
freq.    1066.65  E(vib)   ...       0.02
freq.    1107.61  E(vib)   ...       0.02
freq.    1154.92  E(vib)   ...       0.01
freq.    1159.74  E(vib)   ...       0.01
freq.    1192.39  E(vib)   ...       0.01
freq.    1202.02  E(vib)   ...       0.01
freq.    1217.81  E(vib)   ...       0.01
freq.    1249.62  E(vib)   ...       0.01
freq.    1275.86  E(vib)   ...       0.01
freq.    1280.56  E(vib)   ...       0.01
freq.    1299.53  E(vib)   ...       0.01
freq.    1308.19  E(vib)   ...       0.01
freq.    1316.26  E(vib)   ...       0.01
freq.    1331.64  E(vib)   ...       0.01
freq.    1343.59  E(vib)   ...       0.01
freq.    1367.61  E(vib)   ...       0.01
freq.    1393.10  E(vib)   ...       0.00
freq.    1405.13  E(vib)   ...       0.00
freq.    1434.46  E(vib)   ...       0.00
freq.    1449.43  E(vib)   ...       0.00
freq.    1451.70  E(vib)   ...       0.00
freq.    1468.45  E(vib)   ...       0.00
freq.    1514.17  E(vib)   ...       0.00
freq.    1516.06  E(vib)   ...       0.00
freq.    1520.05  E(vib)   ...       0.00
freq.    1523.73  E(vib)   ...       0.00
freq.    1529.35  E(vib)   ...       0.00
freq.    1534.94  E(vib)   ...       0.00
freq.    1538.37  E(vib)   ...       0.00
freq.    1548.40  E(vib)   ...       0.00
freq.    1564.02  E(vib)   ...       0.00
freq.    3093.86  E(vib)   ...       0.00
freq.    3099.39  E(vib)   ...       0.00
freq.    3100.69  E(vib)   ...       0.00
freq.    3109.95  E(vib)   ...       0.00
freq.    3114.46  E(vib)   ...       0.00
freq.    3125.83  E(vib)   ...       0.00
freq.    3137.20  E(vib)   ...       0.00
freq.    3148.37  E(vib)   ...       0.00
freq.    3163.14  E(vib)   ...       0.00
freq.    3167.91  E(vib)   ...       0.00
freq.    3178.87  E(vib)   ...       0.00
freq.    3183.32  E(vib)   ...       0.00
freq.    3183.67  E(vib)   ...       0.00
freq.    3190.20  E(vib)   ...       0.00
freq.    3199.43  E(vib)   ...       0.00
freq.    3202.92  E(vib)   ...       0.00
freq.    3203.04  E(vib)   ...       0.00
freq.    3961.79  E(vib)   ...       0.00

------------
INNER ENERGY
------------

The inner energy is: U= E(el) + E(ZPE) + E(vib) + E(rot) + E(trans)
    E(el)   - is the total energy from the electronic structure calculation
              = E(kin-el) + E(nuc-el) + E(el-el) + E(nuc-nuc)
    E(ZPE)  - the the zero temperature vibrational energy from the frequency calculation
    E(vib)  - the the finite temperature correction to E(ZPE) due to population
              of excited vibrational states
    E(rot)  - is the rotational thermal energy
    E(trans)- is the translational thermal energy

Summary of contributions to the inner energy U:
Electronic energy                ...    -83.91460453 Eh
Zero point energy                ...      0.27179560 Eh     170.55 kcal/mol
Thermal vibrational correction   ...      0.00785478 Eh       4.93 kcal/mol
Thermal rotational correction    ...      0.00141627 Eh       0.89 kcal/mol
Thermal translational correction ...      0.00141627 Eh       0.89 kcal/mol
-----------------------------------------------------------------------
Total thermal energy                    -83.63212162 Eh

Summary of corrections to the electronic energy:
(perhaps to be used in another calculation)
Total thermal correction                  0.01068732 Eh       6.71 kcal/mol
Non-thermal (ZPE) correction              0.27179560 Eh     170.55 kcal/mol
-----------------------------------------------------------------------
Total correction                          0.28248292 Eh     177.26 kcal/mol

--------
ENTHALPY
--------

The enthalpy is H = U + kB*T
                kB is Boltzmann's constant
Total thermal energy              ...    -83.63212162 Eh
Thermal Enthalpy correction       ...      0.00094421 Eh       0.59 kcal/mol
-----------------------------------------------------------------------
Total Enthalpy                    ...    -83.63117741 Eh

Note: Only C1 symmetry has been detected, increase convergence thresholds
      if your molecule has a higher symmetry. Symmetry factor of 1.0 is
      used for the rotational entropy correction.

Note: Rotational entropy computed according to Herzberg
Infrared and Raman Spectra, Chapter V,1, Van Nostrand Reinhold, 1945
Point Group:  C1, Symmetry Number:   1
Rotational constants in cm-1:     0.050327     0.040471     0.030454

Vibrational entropy computed according to the QRRHO of S. Grimme
Chem.Eur.J. 2012 18 9955 using a reference frequency of 100.0 cm-1

-------
ENTROPY
-------

                             ****ORCA TERMINATED NORMALLY****
TOTAL RUN TIME: 0 days 0 hours 14 minutes 7 seconds 929 msec
