                         Program Version 6.0.1  -  RELEASE   -
|  1> ! wB97X-3c OPT FREQ TightSCF
|  2> %pal
|  3>   nprocs 40
|  4> end
|  5> * xyz 0 1
|  6> C     -0.497378     2.641507    -1.107351
|  7> C     -0.882527     2.026226     0.246119
|  8> C      0.290137     2.021168     1.247979
|  9> C      1.587249     1.346750     0.756707
| 10> C      1.415566    -0.069161     0.154546
| 11> C      0.291363    -0.872248     0.836497
| 12> C     -1.068510    -0.542222     0.261152
| 13> C     -1.579246     0.684105     0.067935
| 14> C     -2.960803     0.610095    -0.497032
| 15> C     -3.341189    -0.864324    -0.395036
| 16> C     -2.021942    -1.613880    -0.171745
| 17> C     -1.534116    -2.289874    -1.459639
| 18> C      2.738081    -0.824770     0.213421
| 19> C      3.435544    -1.061357    -0.909190
| 20> C      3.307862    -1.288110     1.531142
| 21> H      0.035905     3.603908    -0.954487
| 22> H     -1.409535     2.851220    -1.704955
| 23> H      0.151805     1.961166    -1.693735
| 24> H     -1.643396     2.707136     0.688685
| 25> H     -0.043624     1.557774     2.201216
| 26> H      0.537414     3.075720     1.501372
| 27> H      2.277580     1.310615     1.627401
| 28> H      2.075413     1.998752    -0.000256
| 29> H      1.133199     0.046956    -0.915464
| 30> H      0.474708    -1.960347     0.700493
| 31> H      0.283296    -0.699411     1.933103
| 32> H     -2.950100     0.930026    -1.561079
| 33> H     -3.662878     1.244998     0.085123
| 34> H     -3.887056    -1.202814    -1.303344
| 35> H     -4.002474    -1.012945     0.487379
| 36> H     -2.139401    -2.374347     0.631462
| 37> H     -1.394937    -1.540631    -2.269176
| 38> H     -0.569229    -2.809873    -1.283795
| 39> H     -2.275632    -3.046374    -1.793418
| 40> H      3.073442    -0.732653    -1.878448
| 41> H      4.384318    -1.588790    -0.872471
| 42> H      2.652433    -1.003650     2.379731
| 43> H      3.413598    -2.393530     1.525957
| 44> H      4.305061    -0.826812     1.693199
| 45> *
| 46>
| 47>                          ****END OF INPUT****
 Total Charge           Charge          ....    0
 Multiplicity           Mult            ....    1
 Number of Electrons    NEL             ....   84
Dispersion correction           -0.051948369
FINAL SINGLE POINT ENERGY       -99.922267453360
Dispersion correction             ... done (  0.1 sec)
Dispersion correction           -0.052473790
FINAL SINGLE POINT ENERGY       -99.931800177777
Dispersion correction             ... done (  0.1 sec)
Dispersion correction           -0.052565789
FINAL SINGLE POINT ENERGY       -99.932860647989
Dispersion correction             ... done (  0.1 sec)
FINAL SINGLE POINT ENERGY       -99.933309881159
FINAL SINGLE POINT ENERGY       -99.933440815055
FINAL SINGLE POINT ENERGY       -99.933523722285
FINAL SINGLE POINT ENERGY       -99.933575522076
FINAL SINGLE POINT ENERGY       -99.933666206130
FINAL SINGLE POINT ENERGY       -99.933926177000
FINAL SINGLE POINT ENERGY       -99.934204771545
FINAL SINGLE POINT ENERGY       -99.935066174769
FINAL SINGLE POINT ENERGY       -99.935649609537
FINAL SINGLE POINT ENERGY       -99.935843286274
FINAL SINGLE POINT ENERGY       -99.935878584455
FINAL SINGLE POINT ENERGY       -99.935937495446
Dispersion correction             ... done (  0.1 sec)
Dispersion correction           -0.052543605
FINAL SINGLE POINT ENERGY       -99.935943747750
Dispersion correction             ... done (  0.1 sec)
Dispersion correction           -0.052540727
FINAL SINGLE POINT ENERGY       -99.935946730425
Dispersion correction             ... done (  0.1 sec)
                    ***********************HURRAY********************

CARTESIAN COORDINATES (ANGSTROEM)
---------------------------------
  C     -0.479842    2.662223   -1.100926
  C     -0.888648    2.009048    0.214898
  C      0.242494    1.973663    1.236709
  C      1.550403    1.334240    0.795485
  C      1.442211   -0.055279    0.158281
  C      0.323753   -0.906018    0.761904
  C     -1.040366   -0.540268    0.259932
  C     -1.531065    0.670170    0.002159
  C     -2.915359    0.579088   -0.583873
  C     -3.330959   -0.860033   -0.284824
  C     -2.012785   -1.626265   -0.139959
  C     -1.584853   -2.306404   -1.433948
  C      2.777019   -0.758422    0.203619
  C      3.516257   -0.884416   -0.890732
  C      3.234688   -1.303986    1.521576
  H     -0.065466    3.655642   -0.925949
  H     -1.335735    2.773109   -1.765413
  H      0.269865    2.071341   -1.625211
  H     -1.667855    2.645431    0.648834
  H     -0.128921    1.466521    2.129238
  H      0.461124    2.998725    1.545284
  H      2.195816    1.280828    1.674228
  H      2.070586    1.986892    0.092274
  H      1.189969    0.074734   -0.895100
  H      0.507283   -1.951380    0.507407
  H      0.350293   -0.861292    1.854455
  H     -2.893230    0.782394   -1.658624
  H     -3.598036    1.310190   -0.146532
  H     -3.983375   -1.287300   -1.045950
  H     -3.870978   -0.886839    0.661958
  H     -2.085431   -2.387320    0.642259
  H     -1.563620   -1.588100   -2.254760
  H     -0.589487   -2.742829   -1.351811
  H     -2.275748   -3.106175   -1.701308
  H      3.176674   -0.503014   -1.845519
  H      4.483274   -1.370726   -0.869391
  H      3.237744   -0.537005    2.295540
  H      2.572428   -2.098582    1.865776
  H      4.239881   -1.712586    1.448015

 Multiplicity           Mult            ....    1
 Number of Electrons    NEL             ....   84
 Basis Dimension        Dim             ....  315

ORBITAL ENERGIES
----------------

  NO   OCC          E(Eh)            E(eV)
   0   2.0000      -1.005648       -27.3651
   1   2.0000      -0.970738       -26.4151
   2   2.0000      -0.942566       -25.6485
   3   2.0000      -0.900665       -24.5083
   4   2.0000      -0.874035       -23.7837
   5   2.0000      -0.863615       -23.5002
   6   2.0000      -0.825233       -22.4557
   7   2.0000      -0.817791       -22.2532
   8   2.0000      -0.786725       -21.4079
   9   2.0000      -0.772636       -21.0245
  10   2.0000      -0.739641       -20.1266
  11   2.0000      -0.687130       -18.6978
  12   2.0000      -0.680095       -18.5063
  13   2.0000      -0.643144       -17.5008
  14   2.0000      -0.616083       -16.7645
  15   2.0000      -0.601020       -16.3546
  16   2.0000      -0.587824       -15.9955
  17   2.0000      -0.579894       -15.7797
  18   2.0000      -0.570005       -15.5106
  19   2.0000      -0.558898       -15.2084
  20   2.0000      -0.545460       -14.8427
  21   2.0000      -0.538808       -14.6617
  22   2.0000      -0.524919       -14.2838
  23   2.0000      -0.515789       -14.0353
  24   2.0000      -0.509081       -13.8528
  25   2.0000      -0.505057       -13.7433
  26   2.0000      -0.490509       -13.3474
  27   2.0000      -0.486095       -13.2273
  28   2.0000      -0.481084       -13.0910
  29   2.0000      -0.475001       -12.9254
  30   2.0000      -0.467204       -12.7133
  31   2.0000      -0.463552       -12.6139
  32   2.0000      -0.446623       -12.1532
  33   2.0000      -0.444224       -12.0880
  34   2.0000      -0.435054       -11.8384
  35   2.0000      -0.423405       -11.5214
  36   2.0000      -0.420147       -11.4328
  37   2.0000      -0.412380       -11.2214
  38   2.0000      -0.402406       -10.9500
  39   2.0000      -0.397417       -10.8143
  40   2.0000      -0.346156        -9.4194
  41   2.0000      -0.315310        -8.5800
  42   0.0000       0.084128         2.2892
  43   0.0000       0.085486         2.3262
  44   0.0000       0.090145         2.4530
  45   0.0000       0.094927         2.5831
  46   0.0000       0.104466         2.8427

MULLIKEN ATOMIC CHARGES
-----------------------
   0 C :   -0.023081
   1 C :   -0.118733
   2 C :   -0.031872
   3 C :   -0.014962
   4 C :   -0.083794
   5 C :   -0.032095
   6 C :   -0.039645
   7 C :   -0.008412
   8 C :   -0.043109
   9 C :   -0.019612
  10 C :   -0.094020
  11 C :   -0.030972
  12 C :   -0.083644
  13 C :   -0.021884
  14 C :   -0.035693
  15 H :    0.026427
  16 H :    0.029068
  17 H :    0.021869
  18 H :    0.033829
  19 H :    0.033733
  20 H :    0.030361
  21 H :    0.021359
  22 H :    0.034597
  23 H :    0.018486
  24 H :    0.030903
  25 H :    0.042111
  26 H :    0.027902
  27 H :    0.030634
  28 H :    0.025950
  29 H :    0.030259
  30 H :    0.030468
  31 H :    0.021870
  32 H :    0.024670
  33 H :    0.030244
  34 H :    0.023992
  35 H :    0.017274
  36 H :    0.031137
  37 H :    0.034858
  38 H :    0.029529
Sum of atomic charges:    0.0000000

LOEWDIN ATOMIC CHARGES
----------------------
   0 C :   -0.101127
   1 C :   -0.080735
   2 C :   -0.077509
   3 C :   -0.072077
   4 C :   -0.060691
   5 C :   -0.072561
   6 C :   -0.025455
   7 C :   -0.027569
   8 C :   -0.073114
   9 C :   -0.060658
  10 C :   -0.069535
  11 C :   -0.107019
  12 C :   -0.040962
  13 C :   -0.082924
  14 C :   -0.104060
  15 H :    0.044450
  16 H :    0.043960
  17 H :    0.040536
  18 H :    0.053537
  19 H :    0.047684
  20 H :    0.048593
  21 H :    0.044297
  22 H :    0.045897
  23 H :    0.047335
  24 H :    0.049732
  25 H :    0.047768
  26 H :    0.038027
  27 H :    0.042187
  28 H :    0.039074
  29 H :    0.044522
  30 H :    0.042192
  31 H :    0.044016
  32 H :    0.041063
  33 H :    0.042372
  34 H :    0.032325
  35 H :    0.031599
  36 H :    0.044740
  37 H :    0.048780
  38 H :    0.051311

  Mayer bond orders larger than 0.100000
B(  0-C ,  1-C ) :   0.9832 B(  0-C , 15-H ) :   0.9927 B(  0-C , 16-H ) :   0.9948
B(  0-C , 17-H ) :   0.9890 B(  1-C ,  2-C ) :   0.9995 B(  1-C ,  7-C ) :   1.0169
B(  1-C , 18-H ) :   0.9908 B(  2-C ,  3-C ) :   0.9864 B(  2-C , 19-H ) :   0.9956
B(  2-C , 20-H ) :   0.9958 B(  3-C ,  4-C ) :   0.9666 B(  3-C , 21-H ) :   0.9963
B(  3-C , 22-H ) :   0.9983 B(  4-C ,  5-C ) :   0.9625 B(  4-C , 12-C ) :   1.0562
B(  4-C , 23-H ) :   0.9942 B(  5-C ,  6-C ) :   1.0329 B(  5-C , 24-H ) :   0.9881
B(  5-C , 25-H ) :   0.9732 B(  6-C ,  7-C ) :   1.8888 B(  6-C , 10-C ) :   1.0120
B(  7-C ,  8-C ) :   1.0081 B(  8-C ,  9-C ) :   0.9909 B(  8-C , 26-H ) :   0.9823
B(  8-C , 27-H ) :   0.9946 B(  9-C , 10-C ) :   0.9939 B(  9-C , 28-H ) :   0.9989
B(  9-C , 29-H ) :   0.9995 B( 10-C , 11-C ) :   0.9836 B( 10-C , 30-H ) :   0.9946
B( 11-C , 31-H ) :   0.9908 B( 11-C , 32-H ) :   0.9955 B( 11-C , 33-H ) :   0.9942
B( 12-C , 13-C ) :   1.9411 B( 12-C , 14-C ) :   1.0278 B( 13-C , 34-H ) :   0.9848
B( 13-C , 35-H ) :   0.9861 B( 14-C , 36-H ) :   0.9787 B( 14-C , 37-H ) :   0.9769
B( 14-C , 38-H ) :   0.9902

Dispersion correction           -0.052538040
FINAL SINGLE POINT ENERGY       -99.935947197254

DIPOLE MOMENT
-------------

Method             : SCF
Type of density    : Electron Density
Multiplicity       :   1
Irrep              :   0
Energy             :   -99.8834091569277120 Eh
Relativity type    :
Basis              : AO
                                X                 Y                 Z
Electronic contribution:     -2.098308767       0.040186935       2.268311122
Nuclear contribution   :      2.005802422       0.036430194      -2.072696000
                        -----------------------------------------
Total Dipole Moment    :     -0.092506345       0.076617129       0.195615122
                        -----------------------------------------
Magnitude (a.u.)       :      0.229549307
Magnitude (Debye)      :      0.583467968

VIBRATIONAL FREQUENCIES
-----------------------

Scaling factor for frequencies =  1.000000000  (already applied!)

     0:       0.00 cm**-1
     1:       0.00 cm**-1
     2:       0.00 cm**-1
     3:       0.00 cm**-1
     4:       0.00 cm**-1
     5:       0.00 cm**-1
     6:      47.58 cm**-1
     7:      61.28 cm**-1
     8:      81.06 cm**-1
     9:      96.44 cm**-1
    10:     147.22 cm**-1
    11:     150.37 cm**-1
    12:     163.32 cm**-1
    13:     203.80 cm**-1
    14:     229.04 cm**-1
    15:     235.26 cm**-1
    16:     245.75 cm**-1
    17:     257.65 cm**-1
    18:     282.14 cm**-1
    19:     335.55 cm**-1
    20:     338.87 cm**-1
    21:     345.39 cm**-1
    22:     366.48 cm**-1
    23:     403.15 cm**-1
    24:     478.47 cm**-1
    25:     494.47 cm**-1
    26:     515.24 cm**-1
    27:     560.30 cm**-1
    28:     577.09 cm**-1
    29:     638.28 cm**-1
    30:     669.81 cm**-1
    31:     693.51 cm**-1
    32:     742.81 cm**-1
    33:     758.09 cm**-1
    34:     797.77 cm**-1
    35:     831.14 cm**-1
    36:     864.11 cm**-1
    37:     892.39 cm**-1
    38:     921.45 cm**-1
    39:     935.20 cm**-1
    40:     939.56 cm**-1
    41:     959.61 cm**-1
    42:     971.57 cm**-1
    43:     995.56 cm**-1
    44:    1012.55 cm**-1
    45:    1023.32 cm**-1
    46:    1039.79 cm**-1
    47:    1053.11 cm**-1
    48:    1066.23 cm**-1
    49:    1075.67 cm**-1
    50:    1093.82 cm**-1
    51:    1102.47 cm**-1
    52:    1109.21 cm**-1
    53:    1143.45 cm**-1
    54:    1155.10 cm**-1
    55:    1161.90 cm**-1
    56:    1182.80 cm**-1
    57:    1198.36 cm**-1
    58:    1212.58 cm**-1
    59:    1239.59 cm**-1
    60:    1248.45 cm**-1
    61:    1288.04 cm**-1
    62:    1292.11 cm**-1
    63:    1297.42 cm**-1
    64:    1338.56 cm**-1
    65:    1347.67 cm**-1
    66:    1361.44 cm**-1
    67:    1370.13 cm**-1
    68:    1373.96 cm**-1
    69:    1383.48 cm**-1
    70:    1389.19 cm**-1
    71:    1396.71 cm**-1
    72:    1422.81 cm**-1
    73:    1431.67 cm**-1
    74:    1433.50 cm**-1
    75:    1439.34 cm**-1
    76:    1445.61 cm**-1
    77:    1449.32 cm**-1
    78:    1463.29 cm**-1
    79:    1482.30 cm**-1
    80:    1505.59 cm**-1
    81:    1511.15 cm**-1
    82:    1514.02 cm**-1
    83:    1516.53 cm**-1
    84:    1523.27 cm**-1
    85:    1523.80 cm**-1
    86:    1526.73 cm**-1
    87:    1530.64 cm**-1
    88:    1534.55 cm**-1
    89:    1537.94 cm**-1
    90:    1538.91 cm**-1
    91:    1770.96 cm**-1
    92:    1796.17 cm**-1
    93:    3063.26 cm**-1
    94:    3084.79 cm**-1
    95:    3085.62 cm**-1
    96:    3088.46 cm**-1
    97:    3093.56 cm**-1
    98:    3094.03 cm**-1
    99:    3100.56 cm**-1
   100:    3105.37 cm**-1
   101:    3109.82 cm**-1
   102:    3116.74 cm**-1
   103:    3118.28 cm**-1
   104:    3136.88 cm**-1
   105:    3138.64 cm**-1
   106:    3140.93 cm**-1
   107:    3157.47 cm**-1
   108:    3174.45 cm**-1
   109:    3183.69 cm**-1
   110:    3186.40 cm**-1
   111:    3186.93 cm**-1
   112:    3187.91 cm**-1
   113:    3198.50 cm**-1
   114:    3202.32 cm**-1
   115:    3209.40 cm**-1
   116:    3296.26 cm**-1

IR SPECTRUM
-----------

 Mode   freq       eps      Int      T**2         TX        TY        TZ
       cm**-1   L/(mol*cm) km/mol    a.u.
----------------------------------------------------------------------------
  6:     47.58   0.000017    0.09  0.000112  ( 0.008653  0.005967 -0.001341)
  7:     61.28   0.000002    0.01  0.000012  (-0.000671  0.002688 -0.002131)
  8:     81.06   0.000006    0.03  0.000025  ( 0.002409 -0.000071  0.004330)
  9:     96.44   0.000039    0.20  0.000127  ( 0.006920 -0.000428 -0.008911)
 10:    147.22   0.000000    0.00  0.000000  ( 0.000368 -0.000227  0.000000)
 11:    150.37   0.000067    0.34  0.000139  (-0.006809 -0.007722  0.005707)
 12:    163.32   0.000057    0.29  0.000108  (-0.003020 -0.009925 -0.000766)
 13:    203.80   0.000008    0.04  0.000012  ( 0.000285  0.002200 -0.002737)
 14:    229.04   0.000077    0.39  0.000105  (-0.002378 -0.000843 -0.009919)
 15:    235.26   0.000002    0.01  0.000003  (-0.000470  0.001217 -0.001001)
 16:    245.75   0.000026    0.13  0.000033  ( 0.000941 -0.004523 -0.003474)
 17:    257.65   0.000109    0.55  0.000132  (-0.003793  0.001715  0.010718)
 18:    282.14   0.000031    0.16  0.000034  ( 0.001428 -0.004800 -0.003067)
 19:    335.55   0.000095    0.48  0.000088  (-0.000845  0.007182  0.005993)
 20:    338.87   0.000142    0.72  0.000131  ( 0.005784 -0.002133  0.009645)
 21:    345.39   0.000252    1.28  0.000228  (-0.010939  0.005749  0.008681)
 22:    366.48   0.000057    0.29  0.000049  (-0.000247  0.002429 -0.006531)
 23:    403.15   0.000071    0.36  0.000055  (-0.006606  0.002986  0.001651)
 24:    478.47   0.000627    3.17  0.000409  ( 0.004546 -0.007461  0.018239)
 25:    494.47   0.000325    1.64  0.000205  (-0.002703  0.006239  0.012616)
 26:    515.24   0.000331    1.67  0.000201  ( 0.013211 -0.002543 -0.004441)
 27:    560.30   0.001891    9.55  0.001053  ( 0.017328  0.027333  0.002363)
 28:    577.09   0.000125    0.63  0.000067  ( 0.006792  0.003606  0.002874)
 29:    638.28   0.000039    0.20  0.000019  (-0.001907  0.001141  0.003771)
 30:    669.81   0.000221    1.12  0.000103  ( 0.003957 -0.005914  0.007244)
 31:    693.51   0.000048    0.24  0.000022  (-0.004165 -0.001132  0.001742)
 32:    742.81   0.000043    0.22  0.000018  ( 0.002301  0.003177 -0.001611)
 33:    758.09   0.000286    1.45  0.000118  ( 0.006456  0.005555  0.006729)
 34:    797.77   0.000666    3.36  0.000260  ( 0.000549 -0.012675  0.009968)
 35:    831.14   0.000040    0.20  0.000015  (-0.002514 -0.002912 -0.000327)
 36:    864.11   0.000227    1.15  0.000082  (-0.001395  0.007766  0.004452)
 37:    892.39   0.000073    0.37  0.000026  (-0.003010  0.000347  0.004056)
 38:    921.45   0.000037    0.19  0.000012  (-0.001155 -0.000128  0.003327)
 39:    935.20   0.000794    4.01  0.000265  (-0.008839 -0.013014 -0.004169)
 40:    939.56   0.007259   36.68  0.002411  ( 0.021902  0.042798  0.009980)
 41:    959.61   0.000738    3.73  0.000240  (-0.000354 -0.015416  0.001530)
 42:    971.57   0.000316    1.60  0.000102  ( 0.000258 -0.009292 -0.003894)
 43:    995.56   0.000468    2.36  0.000147  (-0.011678  0.001418 -0.002870)
 44:   1012.55   0.000109    0.55  0.000034  ( 0.004919 -0.002799 -0.001283)
 45:   1023.32   0.000072    0.36  0.000022  (-0.000582 -0.000617  0.004597)
 46:   1039.79   0.000832    4.21  0.000250  ( 0.007068  0.010588  0.009367)
 47:   1053.11   0.000974    4.92  0.000289  (-0.006161 -0.015343 -0.003894)
 48:   1066.23   0.000891    4.50  0.000261  (-0.014747  0.003039  0.005836)
 49:   1075.67   0.000157    0.79  0.000045  ( 0.002143 -0.006381 -0.000308)
 50:   1093.82   0.000073    0.37  0.000021  ( 0.002954  0.001646  0.003079)
 51:   1102.47   0.000159    0.81  0.000045  ( 0.005547 -0.003576  0.001259)
 52:   1109.21   0.000436    2.20  0.000123  ( 0.006829 -0.004698 -0.007340)
 53:   1143.45   0.000263    1.33  0.000072  (-0.007361 -0.003836 -0.001667)
 54:   1155.10   0.001051    5.31  0.000284  (-0.015409 -0.003373  0.005935)
 55:   1161.90   0.000108    0.55  0.000029  (-0.001178  0.002739  0.004494)
 56:   1182.80   0.000012    0.06  0.000003  ( 0.000709  0.000689 -0.001471)
 57:   1198.36   0.000164    0.83  0.000043  (-0.001665  0.006116 -0.001571)
 58:   1212.58   0.000475    2.40  0.000122  (-0.008934  0.001501 -0.006341)
 59:   1239.59   0.000043    0.22  0.000011  (-0.003118  0.000369  0.001010)
 60:   1248.45   0.000567    2.87  0.000142  ( 0.001024 -0.011146 -0.004063)
 61:   1288.04   0.000875    4.42  0.000212  (-0.013140  0.005523  0.002959)
 62:   1292.11   0.000201    1.02  0.000049  ( 0.002252 -0.004185 -0.005107)
 63:   1297.42   0.000092    0.47  0.000022  (-0.001264  0.001895  0.004129)
 64:   1338.56   0.000580    2.93  0.000135  ( 0.007004  0.008039  0.004631)
 65:   1347.67   0.000250    1.26  0.000058  (-0.005095  0.005638  0.000246)
 66:   1361.44   0.000124    0.63  0.000029  ( 0.000233 -0.003214  0.004259)
 67:   1370.13   0.000241    1.22  0.000055  ( 0.000031 -0.005759  0.004649)
 68:   1373.96   0.000142    0.72  0.000032  ( 0.003446  0.004042  0.001985)
 69:   1383.48   0.000097    0.49  0.000022  (-0.004293  0.001600 -0.000896)
 70:   1389.19   0.000257    1.30  0.000058  ( 0.002478 -0.006482  0.003096)
 71:   1396.71   0.000817    4.13  0.000182  (-0.001789 -0.013384  0.000400)
 72:   1422.81   0.000377    1.90  0.000083  ( 0.001592 -0.003535  0.008223)
 73:   1431.67   0.000820    4.14  0.000179  (-0.004680 -0.008475  0.009219)
 74:   1433.50   0.000787    3.98  0.000171  ( 0.008240 -0.004709  0.009011)
 75:   1439.34   0.002118   10.70  0.000459  (-0.009313  0.009131  0.017002)
 76:   1445.61   0.000936    4.73  0.000202  ( 0.002517  0.008658 -0.010990)
 77:   1449.32   0.004044   20.44  0.000871  (-0.014807  0.011181 -0.022945)
 78:   1463.29   0.000303    1.53  0.000065  ( 0.000847 -0.006289  0.004937)
 79:   1482.30   0.000223    1.13  0.000047  (-0.005911  0.003139  0.001442)
 80:   1505.59   0.001389    7.02  0.000288  (-0.000548 -0.015802 -0.006154)
 81:   1511.15   0.000598    3.02  0.000123  ( 0.008492 -0.004545 -0.005537)
 82:   1514.02   0.000314    1.59  0.000065  ( 0.000381 -0.000442 -0.008028)
 83:   1516.53   0.001141    5.77  0.000235  ( 0.008955  0.012202 -0.002409)
 84:   1523.27   0.001310    6.62  0.000268  (-0.015781 -0.000930 -0.004290)
 85:   1523.80   0.004796   24.24  0.000982  (-0.029150  0.011348  0.001943)
 86:   1526.73   0.000364    1.84  0.000074  (-0.000038  0.003013  0.008084)
 87:   1530.64   0.003549   17.93  0.000723  ( 0.005707  0.026127 -0.002875)
 88:   1534.55   0.002072   10.47  0.000421  ( 0.008211  0.004392  0.018294)
 89:   1537.94   0.000677    3.42  0.000137  ( 0.005961 -0.002201 -0.009849)
 90:   1538.91   0.000873    4.41  0.000177  (-0.008969  0.001573 -0.009701)
 91:   1770.96   0.006441   32.55  0.001135  (-0.019021  0.003806  0.027543)
 92:   1796.17   0.000144    0.73  0.000025  (-0.004471 -0.000948  0.002051)
 93:   3063.26   0.003996   20.19  0.000407  ( 0.016214 -0.010780 -0.005292)
 94:   3084.79   0.008175   41.31  0.000827  (-0.013214  0.021262 -0.014153)
 95:   3085.62   0.001452    7.34  0.000147  (-0.005802  0.009524 -0.004741)
 96:   3088.46   0.008017   40.52  0.000810  ( 0.006580 -0.020390  0.018736)
 97:   3093.56   0.011606   58.65  0.001171  (-0.011161  0.020042  0.025386)
 98:   3094.03   0.002014   10.18  0.000203  (-0.008658 -0.003320  0.010824)
 99:   3100.56   0.005519   27.89  0.000555  ( 0.001306 -0.016109  0.017154)
100:   3105.37   0.006171   31.19  0.000620  (-0.005917 -0.023513  0.005682)
101:   3109.82   0.010425   52.68  0.001046  (-0.018841 -0.008816 -0.024767)
102:   3116.74   0.001811    9.15  0.000181  (-0.007718  0.008033 -0.007565)
103:   3118.28   0.007736   39.09  0.000774  ( 0.022691  0.015448 -0.004549)
104:   3136.88   0.007054   35.65  0.000702  (-0.022536  0.009279  0.010383)
105:   3138.64   0.003610   18.24  0.000359  ( 0.005187  0.015978  0.008756)
106:   3140.93   0.001916    9.68  0.000190  (-0.009266 -0.009614 -0.003470)
107:   3157.47   0.007646   38.64  0.000756  (-0.001111 -0.015473  0.022694)
108:   3174.45   0.004642   23.46  0.000456  (-0.002568 -0.007697 -0.019762)
109:   3183.69   0.005393   27.25  0.000529  (-0.008423 -0.020798  0.005008)
110:   3186.40   0.004292   21.69  0.000420  (-0.018030  0.003015 -0.009281)
111:   3186.93   0.001412    7.13  0.000138  ( 0.004177  0.010016  0.004521)
112:   3187.91   0.004423   22.35  0.000433  ( 0.010339  0.013750  0.011706)
113:   3198.50   0.003849   19.45  0.000376  (-0.015417  0.011632  0.001588)
114:   3202.32   0.001195    6.04  0.000116  ( 0.006579 -0.001095 -0.008481)
115:   3209.40   0.003215   16.25  0.000313  ( 0.015521 -0.006887 -0.004927)
116:   3296.26   0.001791    9.05  0.000170  ( 0.010246 -0.005911  0.005445)

--------------------------
THERMOCHEMISTRY AT 298.15K
--------------------------

Temperature         ...   298.15 K
Pressure            ...     1.00 atm
Total Mass          ...   204.36 AMU
Quasi RRHO          ...     True
Cut-Off Frequency   ...     1.00 cm^-1

Throughout the following assumptions are being made:
  (1) The electronic state is orbitally nondegenerate
  (2) There are no thermally accessible electronically excited states
  (3) Hindered rotations indicated by low frequency modes are not
      treated as such but are treated as vibrations and this may
      cause some error
  (4) All equations used are the standard statistical mechanics
      equations for an ideal gas
  (5) All vibrations are strictly harmonic

freq.      47.58  E(vib)   ...       0.53
freq.      61.28  E(vib)   ...       0.51
freq.      81.06  E(vib)   ...       0.48
freq.      96.44  E(vib)   ...       0.47
freq.     147.22  E(vib)   ...       0.41
freq.     150.37  E(vib)   ...       0.40
freq.     163.32  E(vib)   ...       0.39
freq.     203.80  E(vib)   ...       0.35
freq.     229.04  E(vib)   ...       0.32
freq.     235.26  E(vib)   ...       0.32
freq.     245.75  E(vib)   ...       0.31
freq.     257.65  E(vib)   ...       0.30
freq.     282.14  E(vib)   ...       0.28
freq.     335.55  E(vib)   ...       0.24
freq.     338.87  E(vib)   ...       0.23
freq.     345.39  E(vib)   ...       0.23
freq.     366.48  E(vib)   ...       0.22
freq.     403.15  E(vib)   ...       0.19
freq.     478.47  E(vib)   ...       0.15
freq.     494.47  E(vib)   ...       0.14
freq.     515.24  E(vib)   ...       0.13
freq.     560.30  E(vib)   ...       0.11
freq.     577.09  E(vib)   ...       0.11
freq.     638.28  E(vib)   ...       0.09
freq.     669.81  E(vib)   ...       0.08
freq.     693.51  E(vib)   ...       0.07
freq.     742.81  E(vib)   ...       0.06
freq.     758.09  E(vib)   ...       0.06
freq.     797.77  E(vib)   ...       0.05
freq.     831.14  E(vib)   ...       0.04
freq.     864.11  E(vib)   ...       0.04
freq.     892.39  E(vib)   ...       0.03
freq.     921.45  E(vib)   ...       0.03
freq.     935.20  E(vib)   ...       0.03
freq.     939.56  E(vib)   ...       0.03
freq.     959.61  E(vib)   ...       0.03
freq.     971.57  E(vib)   ...       0.03
freq.     995.56  E(vib)   ...       0.02
freq.    1012.55  E(vib)   ...       0.02
freq.    1023.32  E(vib)   ...       0.02
freq.    1039.79  E(vib)   ...       0.02
freq.    1053.11  E(vib)   ...       0.02
freq.    1066.23  E(vib)   ...       0.02
freq.    1075.67  E(vib)   ...       0.02
freq.    1093.82  E(vib)   ...       0.02
freq.    1102.47  E(vib)   ...       0.02
freq.    1109.21  E(vib)   ...       0.02
freq.    1143.45  E(vib)   ...       0.01
freq.    1155.10  E(vib)   ...       0.01
freq.    1161.90  E(vib)   ...       0.01
freq.    1182.80  E(vib)   ...       0.01
freq.    1198.36  E(vib)   ...       0.01
freq.    1212.58  E(vib)   ...       0.01
freq.    1239.59  E(vib)   ...       0.01
freq.    1248.45  E(vib)   ...       0.01
freq.    1288.04  E(vib)   ...       0.01
freq.    1292.11  E(vib)   ...       0.01
freq.    1297.42  E(vib)   ...       0.01
freq.    1338.56  E(vib)   ...       0.01
freq.    1347.67  E(vib)   ...       0.01
freq.    1361.44  E(vib)   ...       0.01
freq.    1370.13  E(vib)   ...       0.01
freq.    1373.96  E(vib)   ...       0.01
freq.    1383.48  E(vib)   ...       0.00
freq.    1389.19  E(vib)   ...       0.00
freq.    1396.71  E(vib)   ...       0.00
freq.    1422.81  E(vib)   ...       0.00
freq.    1431.67  E(vib)   ...       0.00
freq.    1433.50  E(vib)   ...       0.00
freq.    1439.34  E(vib)   ...       0.00
freq.    1445.61  E(vib)   ...       0.00
freq.    1449.32  E(vib)   ...       0.00
freq.    1463.29  E(vib)   ...       0.00
freq.    1482.30  E(vib)   ...       0.00
freq.    1505.59  E(vib)   ...       0.00
freq.    1511.15  E(vib)   ...       0.00
freq.    1514.02  E(vib)   ...       0.00
freq.    1516.53  E(vib)   ...       0.00
freq.    1523.27  E(vib)   ...       0.00
freq.    1523.80  E(vib)   ...       0.00
freq.    1526.73  E(vib)   ...       0.00
freq.    1530.64  E(vib)   ...       0.00
freq.    1534.55  E(vib)   ...       0.00
freq.    1537.94  E(vib)   ...       0.00
freq.    1538.91  E(vib)   ...       0.00
freq.    1770.96  E(vib)   ...       0.00
freq.    1796.17  E(vib)   ...       0.00
freq.    3063.26  E(vib)   ...       0.00
freq.    3084.79  E(vib)   ...       0.00
freq.    3085.62  E(vib)   ...       0.00
freq.    3088.46  E(vib)   ...       0.00
freq.    3093.56  E(vib)   ...       0.00
freq.    3094.03  E(vib)   ...       0.00
freq.    3100.56  E(vib)   ...       0.00
freq.    3105.37  E(vib)   ...       0.00
freq.    3109.82  E(vib)   ...       0.00
freq.    3116.74  E(vib)   ...       0.00
freq.    3118.28  E(vib)   ...       0.00
freq.    3136.88  E(vib)   ...       0.00
freq.    3138.64  E(vib)   ...       0.00
freq.    3140.93  E(vib)   ...       0.00
freq.    3157.47  E(vib)   ...       0.00
freq.    3174.45  E(vib)   ...       0.00
freq.    3183.69  E(vib)   ...       0.00
freq.    3186.40  E(vib)   ...       0.00
freq.    3186.93  E(vib)   ...       0.00
freq.    3187.91  E(vib)   ...       0.00
freq.    3198.50  E(vib)   ...       0.00
freq.    3202.32  E(vib)   ...       0.00
freq.    3209.40  E(vib)   ...       0.00
freq.    3296.26  E(vib)   ...       0.00

------------
INNER ENERGY
------------

The inner energy is: U= E(el) + E(ZPE) + E(vib) + E(rot) + E(trans)
    E(el)   - is the total energy from the electronic structure calculation
              = E(kin-el) + E(nuc-el) + E(el-el) + E(nuc-nuc)
    E(ZPE)  - the the zero temperature vibrational energy from the frequency calculation
    E(vib)  - the the finite temperature correction to E(ZPE) due to population
              of excited vibrational states
    E(rot)  - is the rotational thermal energy
    E(trans)- is the translational thermal energy

Summary of contributions to the inner energy U:
Electronic energy                ...    -99.93594720 Eh
Zero point energy                ...      0.36574226 Eh     229.51 kcal/mol
Thermal vibrational correction   ...      0.01257551 Eh       7.89 kcal/mol
Thermal rotational correction    ...      0.00141627 Eh       0.89 kcal/mol
Thermal translational correction ...      0.00141627 Eh       0.89 kcal/mol
-----------------------------------------------------------------------
Total thermal energy                    -99.55479688 Eh

Summary of corrections to the electronic energy:
(perhaps to be used in another calculation)
Total thermal correction                  0.01540806 Eh       9.67 kcal/mol
Non-thermal (ZPE) correction              0.36574226 Eh     229.51 kcal/mol
-----------------------------------------------------------------------
Total correction                          0.38115032 Eh     239.17 kcal/mol

Rotational constants in cm-1:     0.028091     0.015289     0.011816

                             ****ORCA TERMINATED NORMALLY****
TOTAL RUN TIME: 0 days 0 hours 36 minutes 43 seconds 122 msec
