                         Program Version 6.0.1  -  RELEASE   -
|  1> ! wB97X-3c OPT FREQ TightSCF
|  2> %pal
|  3>   nprocs 40
|  4> end
|  5> * xyz 0 1
|  6> C      2.032287    -0.226836    -1.422631
|  7> C      1.229405     0.119264    -0.149887
|  8> C      0.558928    -1.174145     0.455506
|  9> C     -0.271600    -0.761071     1.694335
| 10> C     -1.217816     0.401321     1.307435
| 11> C     -1.085827     0.704685    -0.212933
| 12> O      0.253331     1.113446    -0.495078
| 13> C     -1.405002    -0.589184    -1.016052
| 14> C     -0.454390    -1.728328    -0.574625
| 15> C     -2.042069     1.831753    -0.616363
| 16> C      2.216096     0.745876     0.859114
| 17> H      1.360065    -0.499132    -2.261480
| 18> H      2.621157     0.650084    -1.767915
| 19> H      2.732138    -1.068090    -1.229234
| 20> H      1.310866    -1.947999     0.724822
| 21> H     -0.866490    -1.627185     2.059923
| 22> H      0.389183    -0.467219     2.536502
| 23> H     -0.950964     1.307942     1.893688
| 24> H     -2.267227     0.128669     1.556635
| 25> H     -1.272975    -0.395979    -2.103298
| 26> H     -2.460977    -0.896580    -0.848353
| 27> H      0.067981    -2.166858    -1.450440
| 28> H     -1.042284    -2.557443    -0.122243
| 29> H     -1.938683     2.052200    -1.700350
| 30> H     -3.095693     1.545546    -0.409422
| 31> H     -1.805511     2.756616    -0.048050
| 32> H      1.680693     1.197678     1.718718
| 33> H      2.930686    -0.017279     1.235758
| 34> H      2.794689     1.568249     0.385922
| 35> *
| 36>
| 37>                          ****END OF INPUT****
 Total Charge           Charge          ....    0
 Multiplicity           Mult            ....    1
 Number of Electrons    NEL             ....   64
Dispersion correction           -0.037307178
FINAL SINGLE POINT ENERGY       -83.911436688108
Dispersion correction             ... done (  0.1 sec)
Dispersion correction           -0.038027550
FINAL SINGLE POINT ENERGY       -83.922395741395
Dispersion correction             ... done (  0.1 sec)
Dispersion correction           -0.038108032
FINAL SINGLE POINT ENERGY       -83.923221793566
Dispersion correction             ... done (  0.1 sec)
FINAL SINGLE POINT ENERGY       -83.923394382523
Dispersion correction             ... done (  0.1 sec)
Dispersion correction           -0.038050329
FINAL SINGLE POINT ENERGY       -83.923427476718
Dispersion correction             ... done (  0.1 sec)
Dispersion correction           -0.038044278
FINAL SINGLE POINT ENERGY       -83.923435036951
Dispersion correction             ... done (  0.1 sec)
                    ***********************HURRAY********************

CARTESIAN COORDINATES (ANGSTROEM)
---------------------------------
  C      2.000286   -0.233569   -1.410669
  C      1.235923    0.090014   -0.136702
  C      0.535627   -1.146703    0.447700
  C     -0.268967   -0.753951    1.682504
  C     -1.230732    0.379636    1.297052
  C     -1.105032    0.669361   -0.195558
  O      0.237229    1.063734   -0.467405
  C     -1.409233   -0.594021   -0.995033
  C     -0.450048   -1.714816   -0.568461
  C     -1.975668    1.826373   -0.619520
  C      2.189685    0.732379    0.858121
  H      1.339548   -0.598063   -2.192550
  H      2.482480    0.669183   -1.782092
  H      2.770113   -0.982600   -1.224528
  H      1.291949   -1.890201    0.704239
  H     -0.817791   -1.627497    2.035836
  H      0.382746   -0.454445    2.500523
  H     -0.998343    1.295543    1.840983
  H     -2.264054    0.122122    1.531983
  H     -1.295735   -0.359810   -2.053783
  H     -2.450035   -0.880806   -0.841042
  H      0.066862   -2.136905   -1.427704
  H     -0.994600   -2.538761   -0.106159
  H     -1.836352    2.033698   -1.679140
  H     -3.025883    1.600210   -0.442296
  H     -1.711198    2.721643   -0.059396
  H      1.668186    1.078256    1.746426
  H      2.969244    0.032411    1.159059
  H      2.663789    1.597584    0.397616

 Multiplicity           Mult            ....    1
 Number of Electrons    NEL             ....   64
 Basis Dimension        Dim             ....  233

ORBITAL ENERGIES
----------------

  NO   OCC          E(Eh)            E(eV)
   0   2.0000      -1.156389       -31.4669
   1   2.0000      -0.968787       -26.3620
   2   2.0000      -0.951965       -25.9043
   3   2.0000      -0.884590       -24.0709
   4   2.0000      -0.868836       -23.6422
   5   2.0000      -0.817286       -22.2395
   6   2.0000      -0.810521       -22.0554
   7   2.0000      -0.744183       -20.2503
   8   2.0000      -0.733024       -19.9466
   9   2.0000      -0.712735       -19.3945
  10   2.0000      -0.625265       -17.0143
  11   2.0000      -0.613371       -16.6907
  12   2.0000      -0.590611       -16.0714
  13   2.0000      -0.586665       -15.9640
  14   2.0000      -0.562005       -15.2929
  15   2.0000      -0.538743       -14.6600
  16   2.0000      -0.525912       -14.3108
  17   2.0000      -0.515386       -14.0244
  18   2.0000      -0.510272       -13.8852
  19   2.0000      -0.496843       -13.5198
  20   2.0000      -0.494684       -13.4610
  21   2.0000      -0.481433       -13.1005
  22   2.0000      -0.477352       -12.9894
  23   2.0000      -0.470427       -12.8010
  24   2.0000      -0.459844       -12.5130
  25   2.0000      -0.456957       -12.4344
  26   2.0000      -0.455059       -12.3828
  27   2.0000      -0.439500       -11.9594
  28   2.0000      -0.410051       -11.1581
  29   2.0000      -0.407598       -11.0913
  30   2.0000      -0.375437       -10.2161
  31   2.0000      -0.341440        -9.2911
  32   0.0000       0.082961         2.2575
  33   0.0000       0.098328         2.6756
  34   0.0000       0.102479         2.7886
  35   0.0000       0.109907         2.9907
  36   0.0000       0.118725         3.2307

MULLIKEN ATOMIC CHARGES
-----------------------
   0 C :    0.010268
   1 C :   -0.041732
   2 C :   -0.063891
   3 C :   -0.024240
   4 C :   -0.000299
   5 C :   -0.035484
   6 O :   -0.343647
   7 C :   -0.000721
   8 C :   -0.024624
   9 C :   -0.008634
  10 C :    0.010030
  11 H :    0.016489
  12 H :    0.032842
  13 H :    0.025572
  14 H :    0.039804
  15 H :    0.027948
  16 H :    0.030899
  17 H :    0.029530
  18 H :    0.032303
  19 H :    0.029370
  20 H :    0.032369
  21 H :    0.031103
  22 H :    0.028137
  23 H :    0.031905
  24 H :    0.027244
  25 H :    0.031982
  26 H :    0.016834
  27 H :    0.025345
  28 H :    0.033300
Sum of atomic charges:    0.0000000

LOEWDIN ATOMIC CHARGES
----------------------
   0 C :   -0.097992
   1 C :   -0.051037
   2 C :   -0.063601
   3 C :   -0.068676
   4 C :   -0.064509
   5 C :   -0.068715
   6 O :   -0.069190
   7 C :   -0.064621
   8 C :   -0.068747
   9 C :   -0.095545
  10 C :   -0.097940
  11 H :    0.041655
  12 H :    0.048653
  13 H :    0.044811
  14 H :    0.050164
  15 H :    0.042984
  16 H :    0.039780
  17 H :    0.045337
  18 H :    0.045361
  19 H :    0.045252
  20 H :    0.045369
  21 H :    0.039836
  22 H :    0.043021
  23 H :    0.048497
  24 H :    0.046211
  25 H :    0.048491
  26 H :    0.041670
  27 H :    0.044759
  28 H :    0.048722

  Mayer bond orders larger than 0.100000
B(  0-C ,  1-C ) :   1.0193 B(  0-C , 11-H ) :   0.9902 B(  0-C , 12-H ) :   0.9890
B(  0-C , 13-H ) :   0.9844 B(  1-C ,  2-C ) :   0.9741 B(  1-C ,  6-O ) :   0.9558
B(  1-C , 10-C ) :   1.0198 B(  2-C ,  3-C ) :   0.9954 B(  2-C ,  8-C ) :   0.9952
B(  2-C , 14-H ) :   0.9958 B(  3-C ,  4-C ) :   0.9773 B(  3-C , 15-H ) :   0.9991
B(  3-C , 16-H ) :   1.0015 B(  4-C ,  5-C ) :   0.9806 B(  4-C , 17-H ) :   0.9977
B(  4-C , 18-H ) :   0.9921 B(  5-C ,  6-O ) :   0.9641 B(  5-C ,  7-C ) :   0.9805
B(  5-C ,  9-C ) :   1.0490 B(  7-C ,  8-C ) :   0.9775 B(  7-C , 19-H ) :   0.9977
B(  7-C , 20-H ) :   0.9922 B(  8-C , 21-H ) :   1.0016 B(  8-C , 22-H ) :   0.9989
B(  9-C , 23-H ) :   0.9857 B(  9-C , 24-H ) :   0.9845 B(  9-C , 25-H ) :   0.9857
B( 10-C , 26-H ) :   0.9900 B( 10-C , 27-H ) :   0.9845 B( 10-C , 28-H ) :   0.9889

Dispersion correction           -0.038045625
FINAL SINGLE POINT ENERGY       -83.923436186122

DIPOLE MOMENT
-------------

Method             : SCF
Type of density    : Electron Density
Multiplicity       :   1
Irrep              :   0
Energy             :   -83.8853905608113593 Eh
Relativity type    :
Basis              : AO
                                X                 Y                 Z
Electronic contribution:     -1.018694718      -0.294768750       0.226524413
Nuclear contribution   :      0.867429011      -0.247612238       0.014303866
                        -----------------------------------------
Total Dipole Moment    :     -0.151265707      -0.542380987       0.240828279
                        -----------------------------------------
Magnitude (a.u.)       :      0.612418737
Magnitude (Debye)      :      1.556644721

VIBRATIONAL FREQUENCIES
-----------------------

Scaling factor for frequencies =  1.000000000  (already applied!)

     0:       0.00 cm**-1
     1:       0.00 cm**-1
     2:       0.00 cm**-1
     3:       0.00 cm**-1
     4:       0.00 cm**-1
     5:       0.00 cm**-1
     6:      51.46 cm**-1
     7:     175.35 cm**-1
     8:     209.48 cm**-1
     9:     228.35 cm**-1
    10:     239.89 cm**-1
    11:     262.39 cm**-1
    12:     299.48 cm**-1
    13:     309.27 cm**-1
    14:     344.61 cm**-1
    15:     403.28 cm**-1
    16:     421.15 cm**-1
    17:     441.94 cm**-1
    18:     456.19 cm**-1
    19:     475.69 cm**-1
    20:     524.23 cm**-1
    21:     567.95 cm**-1
    22:     599.78 cm**-1
    23:     677.94 cm**-1
    24:     798.81 cm**-1
    25:     823.23 cm**-1
    26:     849.11 cm**-1
    27:     890.48 cm**-1
    28:     908.78 cm**-1
    29:     932.32 cm**-1
    30:     956.08 cm**-1
    31:     962.51 cm**-1
    32:     965.77 cm**-1
    33:     976.92 cm**-1
    34:    1020.73 cm**-1
    35:    1039.42 cm**-1
    36:    1056.49 cm**-1
    37:    1068.74 cm**-1
    38:    1110.85 cm**-1
    39:    1121.62 cm**-1
    40:    1141.80 cm**-1
    41:    1158.69 cm**-1
    42:    1221.57 cm**-1
    43:    1239.77 cm**-1
    44:    1241.60 cm**-1
    45:    1272.43 cm**-1
    46:    1280.71 cm**-1
    47:    1297.96 cm**-1
    48:    1322.98 cm**-1
    49:    1329.82 cm**-1
    50:    1341.21 cm**-1
    51:    1385.59 cm**-1
    52:    1388.71 cm**-1
    53:    1391.41 cm**-1
    54:    1410.38 cm**-1
    55:    1433.17 cm**-1
    56:    1434.22 cm**-1
    57:    1447.17 cm**-1
    58:    1454.05 cm**-1
    59:    1497.69 cm**-1
    60:    1504.01 cm**-1
    61:    1513.02 cm**-1
    62:    1515.32 cm**-1
    63:    1519.34 cm**-1
    64:    1526.99 cm**-1
    65:    1529.66 cm**-1
    66:    1538.37 cm**-1
    67:    1545.43 cm**-1
    68:    1565.80 cm**-1
    69:    3106.27 cm**-1
    70:    3107.01 cm**-1
    71:    3107.77 cm**-1
    72:    3111.24 cm**-1
    73:    3111.73 cm**-1
    74:    3119.43 cm**-1
    75:    3120.82 cm**-1
    76:    3133.94 cm**-1
    77:    3161.34 cm**-1
    78:    3163.48 cm**-1
    79:    3178.77 cm**-1
    80:    3182.19 cm**-1
    81:    3195.62 cm**-1
    82:    3201.91 cm**-1
    83:    3206.80 cm**-1
    84:    3208.56 cm**-1
    85:    3219.06 cm**-1
    86:    3220.49 cm**-1

IR SPECTRUM
-----------

 Mode   freq       eps      Int      T**2         TX        TY        TZ
       cm**-1   L/(mol*cm) km/mol    a.u.
----------------------------------------------------------------------------
  6:     51.46   0.000246    1.24  0.001491  (-0.002885 -0.014883 -0.035508)
  7:    175.35   0.000021    0.10  0.000036  (-0.000499 -0.002178 -0.005613)
  8:    209.48   0.000023    0.12  0.000035  ( 0.000400  0.002471  0.005342)
  9:    228.35   0.000002    0.01  0.000002  (-0.000071 -0.000610 -0.001382)
 10:    239.89   0.000043    0.22  0.000056  (-0.000635 -0.006883  0.002864)
 11:    262.39   0.000027    0.14  0.000032  ( 0.004854  0.002492 -0.001491)
 12:    299.48   0.000035    0.18  0.000036  (-0.000493  0.005390 -0.002640)
 13:    309.27   0.000010    0.05  0.000010  ( 0.000232  0.001521  0.002792)
 14:    344.61   0.000203    1.03  0.000184  ( 0.000952  0.005278  0.012458)
 15:    403.28   0.000100    0.51  0.000078  ( 0.003395  0.007371 -0.003430)
 16:    421.15   0.000080    0.40  0.000059  (-0.003713 -0.006073  0.002905)
 17:    441.94   0.000101    0.51  0.000071  ( 0.007286 -0.004070  0.001301)
 18:    456.19   0.000005    0.03  0.000004  ( 0.000047  0.000802  0.001737)
 19:    475.69   0.001048    5.30  0.000687  ( 0.001926  0.010196  0.024077)
 20:    524.23   0.000046    0.23  0.000028  (-0.001335  0.004705 -0.001896)
 21:    567.95   0.000167    0.84  0.000092  (-0.003974  0.008117 -0.003188)
 22:    599.78   0.000718    3.63  0.000374  ( 0.001465  0.007491  0.017759)
 23:    677.94   0.000095    0.48  0.000044  ( 0.002581 -0.005734  0.002077)
 24:    798.81   0.000354    1.79  0.000138  (-0.011477 -0.001903  0.001694)
 25:    823.23   0.000320    1.62  0.000121  (-0.000724 -0.004215 -0.010147)
 26:    849.11   0.000060    0.30  0.000022  (-0.000114  0.004346 -0.001730)
 27:    890.48   0.002345   11.85  0.000822  ( 0.003599 -0.026303  0.010815)
 28:    908.78   0.000704    3.56  0.000242  ( 0.008159  0.011947 -0.005692)
 29:    932.32   0.000290    1.46  0.000097  (-0.000741 -0.003974 -0.008978)
 30:    956.08   0.000128    0.65  0.000042  (-0.000479 -0.002610 -0.005896)
 31:    962.51   0.000562    2.84  0.000182  (-0.011866  0.006213 -0.001710)
 32:    965.77   0.000004    0.02  0.000001  (-0.000433 -0.000206 -0.000972)
 33:    976.92   0.000318    1.61  0.000101  (-0.006795 -0.006662  0.003308)
 34:   1020.73   0.000068    0.34  0.000021  ( 0.000089  0.001852  0.004169)
 35:   1039.42   0.000152    0.77  0.000046  ( 0.000530  0.002702  0.006174)
 36:   1056.49   0.009360   47.30  0.002765  (-0.049766  0.016691 -0.003097)
 37:   1068.74   0.002921   14.76  0.000853  (-0.028556 -0.004453  0.004192)
 38:   1110.85   0.002167   10.95  0.000609  (-0.022902 -0.007612  0.005137)
 39:   1121.62   0.000002    0.01  0.000000  ( 0.000113 -0.000274 -0.000618)
 40:   1141.80   0.014136   71.44  0.003864  ( 0.060746 -0.013147  0.000808)
 41:   1158.69   0.000014    0.07  0.000004  (-0.000352  0.000694  0.001759)
 42:   1221.57   0.001957    9.89  0.000500  ( 0.021891 -0.004525  0.000376)
 43:   1239.77   0.000681    3.44  0.000171  (-0.004536  0.012137 -0.001861)
 44:   1241.60   0.002940   14.86  0.000739  (-0.001916 -0.009676 -0.025333)
 45:   1272.43   0.001003    5.07  0.000246  (-0.001782 -0.005977 -0.014390)
 46:   1280.71   0.011989   60.59  0.002921  ( 0.052897 -0.011087  0.000508)
 47:   1297.96   0.003838   19.40  0.000923  ( 0.023430  0.017049 -0.009119)
 48:   1322.98   0.000724    3.66  0.000171  (-0.000621 -0.005109 -0.012013)
 49:   1329.82   0.000039    0.20  0.000009  ( 0.000731 -0.000521 -0.002908)
 50:   1341.21   0.002895   14.63  0.000674  ( 0.023830  0.008712 -0.005471)
 51:   1385.59   0.000474    2.39  0.000107  (-0.000225 -0.004262 -0.009407)
 52:   1388.71   0.001086    5.49  0.000244  (-0.001308 -0.006092 -0.014326)
 53:   1391.41   0.000868    4.38  0.000195  (-0.012864  0.005234 -0.001312)
 54:   1410.38   0.000167    0.84  0.000037  ( 0.005860 -0.001597  0.000076)
 55:   1433.17   0.002026   10.24  0.000441  ( 0.020011  0.004739 -0.004285)
 56:   1434.22   0.004875   24.63  0.001061  (-0.002905 -0.012703 -0.029847)
 57:   1447.17   0.005699   28.80  0.001229  ( 0.034542 -0.005973 -0.000354)
 58:   1454.05   0.004960   25.06  0.001064  ( 0.001430  0.029948 -0.012863)
 59:   1497.69   0.000002    0.01  0.000001  ( 0.000087  0.000297  0.000642)
 60:   1504.01   0.000209    1.06  0.000043  ( 0.000336  0.002591  0.006049)
 61:   1513.02   0.000597    3.02  0.000123  (-0.000891 -0.004004 -0.010308)
 62:   1515.32   0.001145    5.79  0.000236  (-0.005921  0.013424 -0.004541)
 63:   1519.34   0.001307    6.60  0.000268  (-0.001180 -0.005982 -0.015205)
 64:   1526.99   0.000145    0.73  0.000030  ( 0.004247 -0.003066  0.001492)
 65:   1529.66   0.000619    3.13  0.000126  (-0.010901 -0.002180  0.001634)
 66:   1538.37   0.003554   17.96  0.000721  (-0.011573 -0.021830  0.010511)
 67:   1545.43   0.003388   17.12  0.000684  ( 0.002115  0.010498  0.023863)
 68:   1565.80   0.000788    3.98  0.000157  ( 0.011101  0.004933 -0.003089)
 69:   3106.27   0.004218   21.32  0.000424  (-0.001035 -0.007950 -0.018959)
 70:   3107.01   0.000006    0.03  0.000001  ( 0.000685  0.000413 -0.000095)
 71:   3107.77   0.000215    1.09  0.000022  (-0.000211  0.001824  0.004270)
 72:   3111.24   0.009054   45.76  0.000908  ( 0.004950 -0.027566  0.011124)
 73:   3111.73   0.007637   38.59  0.000766  ( 0.026247 -0.008555  0.001954)
 74:   3119.43   0.010123   51.16  0.001013  (-0.031709  0.002560  0.000837)
 75:   3120.82   0.009226   46.62  0.000923  ( 0.001816  0.011926  0.027875)
 76:   3133.94   0.008718   44.06  0.000868  (-0.005912  0.026666 -0.011047)
 77:   3161.34   0.000053    0.27  0.000005  ( 0.000208  0.000754  0.002157)
 78:   3163.48   0.001137    5.74  0.000112  ( 0.003776  0.009052 -0.003992)
 79:   3178.77   0.004696   23.73  0.000461  ( 0.001222  0.008308  0.019762)
 80:   3182.19   0.007890   39.87  0.000774  (-0.025749 -0.008974  0.005496)
 81:   3195.62   0.000009    0.04  0.000001  ( 0.000180 -0.000252  0.000874)
 82:   3201.91   0.005192   26.24  0.000506  ( 0.004374 -0.020343  0.008549)
 83:   3206.80   0.002525   12.76  0.000246  ( 0.001701  0.006510  0.014158)
 84:   3208.56   0.003519   17.78  0.000342  (-0.014311 -0.010052  0.006031)
 85:   3219.06   0.004107   20.76  0.000398  (-0.003947 -0.007983 -0.017857)
 86:   3220.49   0.002859   14.45  0.000277  (-0.016024  0.000241  0.004493)

--------------------------
THERMOCHEMISTRY AT 298.15K
--------------------------

Temperature         ...   298.15 K
Pressure            ...     1.00 atm
Total Mass          ...   154.25 AMU
Quasi RRHO          ...     True
Cut-Off Frequency   ...     1.00 cm^-1

Throughout the following assumptions are being made:
  (1) The electronic state is orbitally nondegenerate
  (2) There are no thermally accessible electronically excited states
  (3) Hindered rotations indicated by low frequency modes are not
      treated as such but are treated as vibrations and this may
      cause some error
  (4) All equations used are the standard statistical mechanics
      equations for an ideal gas
  (5) All vibrations are strictly harmonic

freq.      51.46  E(vib)   ...       0.52
freq.     175.35  E(vib)   ...       0.38
freq.     209.48  E(vib)   ...       0.34
freq.     228.35  E(vib)   ...       0.32
freq.     239.89  E(vib)   ...       0.31
freq.     262.39  E(vib)   ...       0.29
freq.     299.48  E(vib)   ...       0.26
freq.     309.27  E(vib)   ...       0.26
freq.     344.61  E(vib)   ...       0.23
freq.     403.28  E(vib)   ...       0.19
freq.     421.15  E(vib)   ...       0.18
freq.     441.94  E(vib)   ...       0.17
freq.     456.19  E(vib)   ...       0.16
freq.     475.69  E(vib)   ...       0.15
freq.     524.23  E(vib)   ...       0.13
freq.     567.95  E(vib)   ...       0.11
freq.     599.78  E(vib)   ...       0.10
freq.     677.94  E(vib)   ...       0.08
freq.     798.81  E(vib)   ...       0.05
freq.     823.23  E(vib)   ...       0.05
freq.     849.11  E(vib)   ...       0.04
freq.     890.48  E(vib)   ...       0.04
freq.     908.78  E(vib)   ...       0.03
freq.     932.32  E(vib)   ...       0.03
freq.     956.08  E(vib)   ...       0.03
freq.     962.51  E(vib)   ...       0.03
freq.     965.77  E(vib)   ...       0.03
freq.     976.92  E(vib)   ...       0.03
freq.    1020.73  E(vib)   ...       0.02
freq.    1039.42  E(vib)   ...       0.02
freq.    1056.49  E(vib)   ...       0.02
freq.    1068.74  E(vib)   ...       0.02
freq.    1110.85  E(vib)   ...       0.01
freq.    1121.62  E(vib)   ...       0.01
freq.    1141.80  E(vib)   ...       0.01
freq.    1158.69  E(vib)   ...       0.01
freq.    1221.57  E(vib)   ...       0.01
freq.    1239.77  E(vib)   ...       0.01
freq.    1241.60  E(vib)   ...       0.01
freq.    1272.43  E(vib)   ...       0.01
freq.    1280.71  E(vib)   ...       0.01
freq.    1297.96  E(vib)   ...       0.01
freq.    1322.98  E(vib)   ...       0.01
freq.    1329.82  E(vib)   ...       0.01
freq.    1341.21  E(vib)   ...       0.01
freq.    1385.59  E(vib)   ...       0.00
freq.    1388.71  E(vib)   ...       0.00
freq.    1391.41  E(vib)   ...       0.00
freq.    1410.38  E(vib)   ...       0.00
freq.    1433.17  E(vib)   ...       0.00
freq.    1434.22  E(vib)   ...       0.00
freq.    1447.17  E(vib)   ...       0.00
freq.    1454.05  E(vib)   ...       0.00
freq.    1497.69  E(vib)   ...       0.00
freq.    1504.01  E(vib)   ...       0.00
freq.    1513.02  E(vib)   ...       0.00
freq.    1515.32  E(vib)   ...       0.00
freq.    1519.34  E(vib)   ...       0.00
freq.    1526.99  E(vib)   ...       0.00
freq.    1529.66  E(vib)   ...       0.00
freq.    1538.37  E(vib)   ...       0.00
freq.    1545.43  E(vib)   ...       0.00
freq.    1565.80  E(vib)   ...       0.00
freq.    3106.27  E(vib)   ...       0.00
freq.    3107.01  E(vib)   ...       0.00
freq.    3107.77  E(vib)   ...       0.00
freq.    3111.24  E(vib)   ...       0.00
freq.    3111.73  E(vib)   ...       0.00
freq.    3119.43  E(vib)   ...       0.00
freq.    3120.82  E(vib)   ...       0.00
freq.    3133.94  E(vib)   ...       0.00
freq.    3161.34  E(vib)   ...       0.00
freq.    3163.48  E(vib)   ...       0.00
freq.    3178.77  E(vib)   ...       0.00
freq.    3182.19  E(vib)   ...       0.00
freq.    3195.62  E(vib)   ...       0.00
freq.    3201.91  E(vib)   ...       0.00
freq.    3206.80  E(vib)   ...       0.00
freq.    3208.56  E(vib)   ...       0.00
freq.    3219.06  E(vib)   ...       0.00
freq.    3220.49  E(vib)   ...       0.00

------------
INNER ENERGY
------------

The inner energy is: U= E(el) + E(ZPE) + E(vib) + E(rot) + E(trans)
    E(el)   - is the total energy from the electronic structure calculation
              = E(kin-el) + E(nuc-el) + E(el-el) + E(nuc-nuc)
    E(ZPE)  - the the zero temperature vibrational energy from the frequency calculation
    E(vib)  - the the finite temperature correction to E(ZPE) due to population
              of excited vibrational states
    E(rot)  - is the rotational thermal energy
    E(trans)- is the translational thermal energy

Summary of contributions to the inner energy U:
Electronic energy                ...    -83.92343619 Eh
Zero point energy                ...      0.27218552 Eh     170.80 kcal/mol
Thermal vibrational correction   ...      0.00765875 Eh       4.81 kcal/mol
Thermal rotational correction    ...      0.00141627 Eh       0.89 kcal/mol
Thermal translational correction ...      0.00141627 Eh       0.89 kcal/mol
-----------------------------------------------------------------------
Total thermal energy                    -83.64075937 Eh

Summary of corrections to the electronic energy:
(perhaps to be used in another calculation)
Total thermal correction                  0.01049129 Eh       6.58 kcal/mol
Non-thermal (ZPE) correction              0.27218552 Eh     170.80 kcal/mol
-----------------------------------------------------------------------
Total correction                          0.28267681 Eh     177.38 kcal/mol

--------
ENTHALPY
--------

The enthalpy is H = U + kB*T
                kB is Boltzmann's constant
Total thermal energy              ...    -83.64075937 Eh
Thermal Enthalpy correction       ...      0.00094421 Eh       0.59 kcal/mol
-----------------------------------------------------------------------
Total Enthalpy                    ...    -83.63981516 Eh

Note: Only C1 symmetry has been detected, increase convergence thresholds
      if your molecule has a higher symmetry. Symmetry factor of 1.0 is
      used for the rotational entropy correction.

Note: Rotational entropy computed according to Herzberg
Infrared and Raman Spectra, Chapter V,1, Van Nostrand Reinhold, 1945
Point Group:  C1, Symmetry Number:   1
Rotational constants in cm-1:     0.052378     0.036495     0.035120

Vibrational entropy computed according to the QRRHO of S. Grimme
Chem.Eur.J. 2012 18 9955 using a reference frequency of 100.0 cm-1

-------
ENTROPY
-------

                             ****ORCA TERMINATED NORMALLY****
TOTAL RUN TIME: 0 days 0 hours 11 minutes 14 seconds 484 msec
