                         Program Version 6.0.1  -  RELEASE   -
|  1> ! wB97X-3c OPT FREQ TightSCF
|  2> %pal
|  3>   nprocs 40
|  4> end
|  5> * xyz 0 1
|  6> C     -2.409906    -0.706526    -1.869607
|  7> C     -2.023804    -1.262219    -0.519747
|  8> C     -2.418480    -0.688854     0.636808
|  9> C     -2.779408     0.762688     0.761223
| 10> C     -1.526936     1.571164     1.146542
| 11> C     -0.582093     1.781114    -0.027149
| 12> C     -0.713213     2.905330    -0.752414
| 13> C      0.445282     0.751806    -0.509760
| 14> C      1.888204     1.195393    -0.255326
| 15> C      2.176846    -0.120082     0.482904
| 16> C      0.697396    -0.549435     0.294331
| 17> C      0.440629    -1.850620    -0.527732
| 18> C     -1.009514    -2.379151    -0.443325
| 19> C      3.244742    -0.966059    -0.240488
| 20> C      2.547356     0.102809     1.960418
| 21> H     -3.513762    -0.740131    -1.981803
| 22> H     -2.065242     0.339664    -1.988064
| 23> H     -1.958577    -1.306849    -2.687211
| 24> H     -2.154624    -1.173455     1.574155
| 25> H     -3.527082     0.857935     1.577399
| 26> H     -3.250682     1.170223    -0.157688
| 27> H     -1.864602     2.557985     1.533972
| 28> H     -0.996670     1.103879     2.001478
| 29> H     -1.450613     3.660122    -0.495911
| 30> H     -0.085260     3.085591    -1.620208
| 31> H      0.302140     0.547139    -1.594475
| 32> H      2.457507     1.319036    -1.203448
| 33> H      1.965241     2.094543     0.397168
| 34> H      0.183971    -0.599054     1.273967
| 35> H      0.705885    -1.699260    -1.596481
| 36> H      1.098181    -2.657839    -0.141801
| 37> H     -1.183696    -3.101333    -1.269886
| 38> H     -1.134513    -2.953461     0.501646
| 39> H      3.338129    -1.962965     0.239374
| 40> H      4.231134    -0.458683    -0.180269
| 41> H      2.998690    -1.101151    -1.314882
| 42> H      2.585410    -0.871926     2.491529
| 43> H      3.541867     0.591816     2.036694
| 44> H      1.800067     0.750817     2.468067
| 45> *
| 46>
| 47>                          ****END OF INPUT****
 Total Charge           Charge          ....    0
 Multiplicity           Mult            ....    1
 Number of Electrons    NEL             ....   84
Dispersion correction           -0.053711477
FINAL SINGLE POINT ENERGY       -99.873116153784
Dispersion correction             ... done (  0.1 sec)
Dispersion correction           -0.054401959
FINAL SINGLE POINT ENERGY       -99.885963564093
Dispersion correction             ... done (  0.1 sec)
Dispersion correction           -0.054355559
FINAL SINGLE POINT ENERGY       -99.887805668124
Dispersion correction             ... done (  0.1 sec)
FINAL SINGLE POINT ENERGY       -99.888570286469
FINAL SINGLE POINT ENERGY       -99.889622195209
FINAL SINGLE POINT ENERGY       -99.891168424310
FINAL SINGLE POINT ENERGY       -99.892929894446
FINAL SINGLE POINT ENERGY       -99.893986564490
FINAL SINGLE POINT ENERGY       -99.894524738474
FINAL SINGLE POINT ENERGY       -99.894599175944
FINAL SINGLE POINT ENERGY       -99.895285787150
FINAL SINGLE POINT ENERGY       -99.895617661366
FINAL SINGLE POINT ENERGY       -99.896255669257
FINAL SINGLE POINT ENERGY       -99.896829096239
FINAL SINGLE POINT ENERGY       -99.896961924323
FINAL SINGLE POINT ENERGY       -99.897183910368
FINAL SINGLE POINT ENERGY       -99.897357702670
Dispersion correction             ... done (  0.1 sec)
Dispersion correction           -0.054405037
FINAL SINGLE POINT ENERGY       -99.897370953561
Dispersion correction             ... done (  0.0 sec)
Dispersion correction           -0.054407898
FINAL SINGLE POINT ENERGY       -99.897376606205
Dispersion correction             ... done (  0.1 sec)
                    ***********************HURRAY********************

CARTESIAN COORDINATES (ANGSTROEM)
---------------------------------
  C     -2.384800   -0.772970   -1.772919
  C     -2.017852   -1.148103   -0.373045
  C     -2.328140   -0.454382    0.717218
  C     -2.771322    0.966389    0.792628
  C     -1.512365    1.840834    0.899893
  C     -0.645924    1.745365   -0.333267
  C     -0.941876    2.491683   -1.390839
  C      0.574365    0.867830   -0.374389
  C      1.812955    1.308463    0.424854
  C      2.205847   -0.171922    0.586237
  C      0.723487   -0.522506    0.289274
  C      0.376849   -1.793026   -0.469238
  C     -1.058180   -2.290848   -0.234171
  C      3.171096   -0.614888   -0.499543
  C      2.714573   -0.596534    1.946242
  H     -2.911446   -1.603837   -2.246274
  H     -3.019060    0.106073   -1.824340
  H     -1.495631   -0.575528   -2.372446
  H     -2.005498   -0.868654    1.668304
  H     -3.403263    1.134388    1.666168
  H     -3.343616    1.269746   -0.082528
  H     -1.805932    2.880280    1.050652
  H     -0.948030    1.545255    1.787072
  H     -1.772306    3.187575   -1.378732
  H     -0.366053    2.433891   -2.305942
  H      0.863584    0.769840   -1.422215
  H      2.516145    1.972532   -0.077830
  H      1.532603    1.751707    1.381298
  H      0.203194   -0.518899    1.248497
  H      0.545197   -1.636778   -1.537123
  H      1.064509   -2.588456   -0.172079
  H     -1.280864   -3.100760   -0.932012
  H     -1.125870   -2.704630    0.772840
  H      3.302857   -1.697196   -0.497205
  H      4.150497   -0.163176   -0.336001
  H      2.836460   -0.323173   -1.494257
  H      2.789872   -1.683518    2.013895
  H      3.706012   -0.184562    2.141993
  H      2.047928   -0.257502    2.739327

 Multiplicity           Mult            ....    1
 Number of Electrons    NEL             ....   84
 Basis Dimension        Dim             ....  315

ORBITAL ENERGIES
----------------

  NO   OCC          E(Eh)            E(eV)
   0   2.0000      -1.014265       -27.5996
   1   2.0000      -0.968806       -26.3626
   2   2.0000      -0.946028       -25.7427
   3   2.0000      -0.901550       -24.5324
   4   2.0000      -0.870055       -23.6754
   5   2.0000      -0.863762       -23.5042
   6   2.0000      -0.820918       -22.3383
   7   2.0000      -0.812810       -22.1177
   8   2.0000      -0.795909       -21.6578
   9   2.0000      -0.758481       -20.6393
  10   2.0000      -0.740266       -20.1437
  11   2.0000      -0.711556       -19.3624
  12   2.0000      -0.649030       -17.6610
  13   2.0000      -0.645331       -17.5604
  14   2.0000      -0.635257       -17.2862
  15   2.0000      -0.596320       -16.2267
  16   2.0000      -0.587429       -15.9847
  17   2.0000      -0.581216       -15.8157
  18   2.0000      -0.573516       -15.6062
  19   2.0000      -0.551274       -15.0009
  20   2.0000      -0.546789       -14.8789
  21   2.0000      -0.535367       -14.5681
  22   2.0000      -0.518933       -14.1209
  23   2.0000      -0.518598       -14.1118
  24   2.0000      -0.510399       -13.8887
  25   2.0000      -0.506041       -13.7701
  26   2.0000      -0.500255       -13.6126
  27   2.0000      -0.490794       -13.3552
  28   2.0000      -0.484044       -13.1715
  29   2.0000      -0.476367       -12.9626
  30   2.0000      -0.469451       -12.7744
  31   2.0000      -0.463599       -12.6152
  32   2.0000      -0.453654       -12.3445
  33   2.0000      -0.445596       -12.1253
  34   2.0000      -0.438275       -11.9261
  35   2.0000      -0.432037       -11.7563
  36   2.0000      -0.411515       -11.1979
  37   2.0000      -0.402664       -10.9570
  38   2.0000      -0.387680       -10.5493
  39   2.0000      -0.382778       -10.4159
  40   2.0000      -0.342128        -9.3098
  41   2.0000      -0.321717        -8.7544
  42   0.0000       0.079260         2.1568
  43   0.0000       0.085635         2.3303
  44   0.0000       0.089326         2.4307
  45   0.0000       0.093904         2.5553
  46   0.0000       0.103439         2.8147

MULLIKEN ATOMIC CHARGES
-----------------------
   0 C :   -0.020669
   1 C :   -0.068540
   2 C :   -0.042472
   3 C :   -0.031376
   4 C :   -0.035966
   5 C :   -0.059880
   6 C :   -0.015711
   7 C :   -0.054383
   8 C :    0.023581
   9 C :   -0.168986
  10 C :   -0.028142
  11 C :   -0.018528
  12 C :   -0.031280
  13 C :   -0.013815
  14 C :   -0.008885
  15 H :    0.039762
  16 H :    0.022308
  17 H :    0.026835
  18 H :    0.019601
  19 H :    0.033266
  20 H :    0.028087
  21 H :    0.037474
  22 H :    0.026409
  23 H :    0.016674
  24 H :    0.026609
  25 H :   -0.001048
  26 H :    0.030936
  27 H :    0.015156
  28 H :   -0.005731
  29 H :    0.022109
  30 H :    0.031007
  31 H :    0.027322
  32 H :    0.030471
  33 H :    0.022666
  34 H :    0.027745
  35 H :    0.020400
  36 H :    0.023988
  37 H :    0.028266
  38 H :    0.024743
Sum of atomic charges:   -0.0000000

LOEWDIN ATOMIC CHARGES
----------------------
   0 C :   -0.103902
   1 C :   -0.042254
   2 C :   -0.055818
   3 C :   -0.084212
   4 C :   -0.072355
   5 C :   -0.031186
   6 C :   -0.073611
   7 C :   -0.048106
   8 C :   -0.040642
   9 C :   -0.066458
  10 C :   -0.035182
  11 C :   -0.073761
  12 C :   -0.077139
  13 C :   -0.103969
  14 C :   -0.110378
  15 H :    0.050092
  16 H :    0.044866
  17 H :    0.045507
  18 H :    0.034759
  19 H :    0.046986
  20 H :    0.043351
  21 H :    0.050471
  22 H :    0.043200
  23 H :    0.030819
  24 H :    0.030279
  25 H :    0.043169
  26 H :    0.034273
  27 H :    0.040379
  28 H :    0.038956
  29 H :    0.039208
  30 H :    0.044983
  31 H :    0.045668
  32 H :    0.050032
  33 H :    0.042706
  34 H :    0.045501
  35 H :    0.042936
  36 H :    0.043930
  37 H :    0.045068
  38 H :    0.041838

  Mayer bond orders larger than 0.100000
B(  0-C ,  1-C ) :   1.0342 B(  0-C , 15-H ) :   0.9783 B(  0-C , 16-H ) :   0.9891
B(  0-C , 17-H ) :   0.9759 B(  1-C ,  2-C ) :   1.8874 B(  1-C , 12-C ) :   1.0228
B(  2-C ,  3-C ) :   1.0189 B(  2-C , 18-H ) :   0.9887 B(  3-C ,  4-C ) :   0.9714
B(  3-C , 19-H ) :   0.9935 B(  3-C , 20-H ) :   0.9922 B(  4-C ,  5-C ) :   1.0008
B(  4-C , 21-H ) :   0.9898 B(  4-C , 22-H ) :   0.9902 B(  5-C ,  6-C ) :   1.9343
B(  5-C ,  7-C ) :   1.0798 B(  6-C , 23-H ) :   0.9865 B(  6-C , 24-H ) :   0.9831
B(  7-C ,  8-C ) :   0.9669 B(  7-C , 10-C ) :   0.9628 B(  7-C , 25-H ) :   0.9881
B(  8-C ,  9-C ) :   0.9846 B(  8-C , 26-H ) :   1.0030 B(  8-C , 27-H ) :   0.9923
B(  9-C , 10-C ) :   0.9821 B(  9-C , 13-C ) :   1.0090 B(  9-C , 14-C ) :   1.0257
B( 10-C , 11-C ) :   0.9871 B( 10-C , 28-H ) :   0.9829 B( 11-C , 12-C ) :   0.9806
B( 11-C , 29-H ) :   0.9924 B( 11-C , 30-H ) :   0.9962 B( 12-C , 31-H ) :   0.9938
B( 12-C , 32-H ) :   0.9934 B( 13-C , 33-H ) :   0.9899 B( 13-C , 34-H ) :   0.9894
B( 13-C , 35-H ) :   0.9908 B( 14-C , 36-H ) :   0.9862 B( 14-C , 37-H ) :   0.9875
B( 14-C , 38-H ) :   0.9885

Dispersion correction           -0.054407065
FINAL SINGLE POINT ENERGY       -99.897377050590

DIPOLE MOMENT
-------------

Method             : SCF
Type of density    : Electron Density
Multiplicity       :   1
Irrep              :   0
Energy             :   -99.8429699855523864 Eh
Relativity type    :
Basis              : AO
                                X                 Y                 Z
Electronic contribution:     -5.811752027       2.393410226       0.622566242
Nuclear contribution   :      5.988999339      -2.461408266      -0.601223483
                        -----------------------------------------
Total Dipole Moment    :      0.177247312      -0.067998041       0.021342759
                        -----------------------------------------
Magnitude (a.u.)       :      0.191038888
Magnitude (Debye)      :      0.485582262

VIBRATIONAL FREQUENCIES
-----------------------

Scaling factor for frequencies =  1.000000000  (already applied!)

     0:       0.00 cm**-1
     1:       0.00 cm**-1
     2:       0.00 cm**-1
     3:       0.00 cm**-1
     4:       0.00 cm**-1
     5:       0.00 cm**-1
     6:      71.10 cm**-1
     7:      86.74 cm**-1
     8:     108.79 cm**-1
     9:     140.11 cm**-1
    10:     166.42 cm**-1
    11:     176.70 cm**-1
    12:     198.12 cm**-1
    13:     214.60 cm**-1
    14:     228.76 cm**-1
    15:     248.47 cm**-1
    16:     256.11 cm**-1
    17:     284.07 cm**-1
    18:     320.16 cm**-1
    19:     328.27 cm**-1
    20:     341.17 cm**-1
    21:     374.49 cm**-1
    22:     403.67 cm**-1
    23:     413.77 cm**-1
    24:     469.50 cm**-1
    25:     484.91 cm**-1
    26:     490.11 cm**-1
    27:     526.52 cm**-1
    28:     551.46 cm**-1
    29:     574.96 cm**-1
    30:     600.66 cm**-1
    31:     676.37 cm**-1
    32:     740.04 cm**-1
    33:     746.72 cm**-1
    34:     805.39 cm**-1
    35:     832.85 cm**-1
    36:     863.66 cm**-1
    37:     884.55 cm**-1
    38:     909.29 cm**-1
    39:     937.26 cm**-1
    40:     940.71 cm**-1
    41:     950.04 cm**-1
    42:     962.99 cm**-1
    43:     977.48 cm**-1
    44:     978.96 cm**-1
    45:     997.68 cm**-1
    46:    1013.28 cm**-1
    47:    1028.02 cm**-1
    48:    1037.80 cm**-1
    49:    1043.34 cm**-1
    50:    1058.48 cm**-1
    51:    1074.45 cm**-1
    52:    1079.63 cm**-1
    53:    1088.45 cm**-1
    54:    1118.67 cm**-1
    55:    1155.34 cm**-1
    56:    1167.19 cm**-1
    57:    1185.31 cm**-1
    58:    1204.42 cm**-1
    59:    1224.18 cm**-1
    60:    1250.32 cm**-1
    61:    1255.83 cm**-1
    62:    1257.08 cm**-1
    63:    1280.90 cm**-1
    64:    1292.07 cm**-1
    65:    1298.48 cm**-1
    66:    1328.80 cm**-1
    67:    1337.54 cm**-1
    68:    1352.91 cm**-1
    69:    1364.63 cm**-1
    70:    1370.88 cm**-1
    71:    1394.22 cm**-1
    72:    1402.94 cm**-1
    73:    1408.48 cm**-1
    74:    1423.99 cm**-1
    75:    1437.28 cm**-1
    76:    1450.79 cm**-1
    77:    1452.24 cm**-1
    78:    1466.04 cm**-1
    79:    1488.39 cm**-1
    80:    1502.85 cm**-1
    81:    1509.24 cm**-1
    82:    1511.20 cm**-1
    83:    1512.81 cm**-1
    84:    1519.43 cm**-1
    85:    1523.91 cm**-1
    86:    1524.73 cm**-1
    87:    1530.20 cm**-1
    88:    1533.07 cm**-1
    89:    1536.82 cm**-1
    90:    1537.21 cm**-1
    91:    1756.91 cm**-1
    92:    1803.16 cm**-1
    93:    3084.63 cm**-1
    94:    3088.90 cm**-1
    95:    3095.00 cm**-1
    96:    3098.15 cm**-1
    97:    3100.92 cm**-1
    98:    3102.75 cm**-1
    99:    3111.60 cm**-1
   100:    3113.36 cm**-1
   101:    3114.97 cm**-1
   102:    3124.80 cm**-1
   103:    3139.77 cm**-1
   104:    3156.48 cm**-1
   105:    3160.74 cm**-1
   106:    3170.68 cm**-1
   107:    3171.26 cm**-1
   108:    3177.14 cm**-1
   109:    3177.67 cm**-1
   110:    3178.73 cm**-1
   111:    3181.70 cm**-1
   112:    3191.65 cm**-1
   113:    3193.24 cm**-1
   114:    3197.11 cm**-1
   115:    3230.03 cm**-1
   116:    3289.35 cm**-1

IR SPECTRUM
-----------

 Mode   freq       eps      Int      T**2         TX        TY        TZ
       cm**-1   L/(mol*cm) km/mol    a.u.
----------------------------------------------------------------------------
  6:     71.10   0.000016    0.08  0.000072  (-0.007602  0.000545 -0.003747)
  7:     86.74   0.000001    0.01  0.000005  (-0.001403  0.000238 -0.001679)
  8:    108.79   0.000003    0.01  0.000007  (-0.000360 -0.000494 -0.002631)
  9:    140.11   0.000038    0.19  0.000085  ( 0.007583  0.004803  0.002140)
 10:    166.42   0.000017    0.09  0.000033  (-0.004792 -0.001162  0.002896)
 11:    176.70   0.000063    0.32  0.000111  ( 0.005861  0.008673  0.001236)
 12:    198.12   0.000046    0.23  0.000072  (-0.006740 -0.004175 -0.003084)
 13:    214.60   0.000022    0.11  0.000032  (-0.001768  0.002789 -0.004562)
 14:    228.76   0.000009    0.05  0.000013  (-0.000641 -0.003208 -0.001440)
 15:    248.47   0.000033    0.17  0.000042  ( 0.004611  0.004543 -0.000376)
 16:    256.11   0.000131    0.66  0.000159  (-0.012019 -0.003774 -0.000834)
 17:    284.07   0.000001    0.00  0.000001  ( 0.000367  0.000232  0.000747)
 18:    320.16   0.000042    0.21  0.000040  ( 0.003628  0.004150 -0.003176)
 19:    328.27   0.000034    0.17  0.000032  ( 0.003610 -0.004369  0.000426)
 20:    341.17   0.000089    0.45  0.000082  (-0.003087  0.007250  0.004415)
 21:    374.49   0.000030    0.15  0.000025  (-0.003968  0.000150 -0.002985)
 22:    403.67   0.000140    0.71  0.000108  (-0.006922  0.005884  0.005033)
 23:    413.77   0.000003    0.01  0.000002  ( 0.001342  0.000089 -0.000340)
 24:    469.50   0.000471    2.38  0.000313  ( 0.017608 -0.000459 -0.001762)
 25:    484.91   0.000066    0.33  0.000042  ( 0.004106 -0.004982  0.000764)
 26:    490.11   0.000340    1.72  0.000217  (-0.014447 -0.002826  0.000147)
 27:    526.52   0.000295    1.49  0.000175  ( 0.005579  0.008563  0.008376)
 28:    551.46   0.001038    5.25  0.000587  (-0.012976 -0.017793 -0.010119)
 29:    574.96   0.000190    0.96  0.000103  ( 0.001815  0.009294  0.003685)
 30:    600.66   0.001394    7.04  0.000724  ( 0.023942  0.011959 -0.002822)
 31:    676.37   0.001171    5.92  0.000540  ( 0.012809  0.018601  0.005512)
 32:    740.04   0.000168    0.85  0.000071  ( 0.000533  0.007339 -0.004085)
 33:    746.72   0.000171    0.86  0.000072  ( 0.001787  0.007091 -0.004246)
 34:    805.39   0.000152    0.77  0.000059  (-0.000661 -0.000558 -0.007630)
 35:    832.85   0.000054    0.27  0.000020  (-0.002054  0.003420 -0.002100)
 36:    863.66   0.001042    5.26  0.000376  ( 0.011250  0.011874 -0.010430)
 37:    884.55   0.000759    3.84  0.000268  (-0.001082 -0.016269 -0.001418)
 38:    909.29   0.000394    1.99  0.000135  ( 0.005283  0.000413 -0.010345)
 39:    937.26   0.007402   37.41  0.002464  (-0.040816 -0.028035  0.003542)
 40:    940.71   0.001122    5.67  0.000372  (-0.011328 -0.014613 -0.005504)
 41:    950.04   0.002566   12.97  0.000843  (-0.004028  0.020657  0.020000)
 42:    962.99   0.000652    3.29  0.000211  (-0.011249 -0.009169 -0.000805)
 43:    977.48   0.000384    1.94  0.000123  (-0.009385  0.002315 -0.005402)
 44:    978.96   0.000152    0.77  0.000049  ( 0.004658  0.000159 -0.005185)
 45:    997.68   0.000828    4.19  0.000259  ( 0.012195 -0.009306 -0.004869)
 46:   1013.28   0.000174    0.88  0.000054  ( 0.006703 -0.001266 -0.002680)
 47:   1028.02   0.000343    1.74  0.000104  ( 0.002402  0.008969  0.004245)
 48:   1037.80   0.000293    1.48  0.000088  ( 0.008922 -0.001323 -0.002594)
 49:   1043.34   0.000997    5.04  0.000298  ( 0.014759 -0.007001  0.005590)
 50:   1058.48   0.000408    2.06  0.000120  (-0.002047  0.007076  0.008128)
 51:   1074.45   0.000105    0.53  0.000030  (-0.005187  0.000429 -0.001812)
 52:   1079.63   0.000535    2.71  0.000155  ( 0.006595 -0.001862 -0.010383)
 53:   1088.45   0.000358    1.81  0.000103  ( 0.002605 -0.009692 -0.001338)
 54:   1118.67   0.000271    1.37  0.000076  (-0.008323  0.002199 -0.001233)
 55:   1155.34   0.000235    1.19  0.000063  ( 0.003972 -0.006326 -0.002765)
 56:   1167.19   0.000611    3.09  0.000163  ( 0.006390 -0.010907 -0.001870)
 57:   1185.31   0.000347    1.76  0.000091  ( 0.003386  0.008469  0.002879)
 58:   1204.42   0.000357    1.80  0.000092  (-0.009423  0.001910  0.000030)
 59:   1224.18   0.000210    1.06  0.000053  ( 0.006076  0.001400  0.003814)
 60:   1250.32   0.000539    2.72  0.000134  (-0.008449  0.003726  0.007012)
 61:   1255.83   0.000437    2.21  0.000109  ( 0.005760 -0.007957 -0.003493)
 62:   1257.08   0.000748    3.78  0.000186  ( 0.005132  0.011494  0.005214)
 63:   1280.90   0.000246    1.24  0.000060  (-0.002627 -0.002944 -0.006664)
 64:   1292.07   0.000031    0.16  0.000007  (-0.000772  0.000079  0.002613)
 65:   1298.48   0.000224    1.13  0.000054  (-0.004653  0.000963  0.005594)
 66:   1328.80   0.000112    0.56  0.000026  (-0.000488 -0.004428 -0.002532)
 67:   1337.54   0.000082    0.42  0.000019  ( 0.003083  0.002214  0.002185)
 68:   1352.91   0.001224    6.19  0.000282  ( 0.014024 -0.006538  0.006555)
 69:   1364.63   0.001037    5.24  0.000237  ( 0.008255 -0.005109  0.011954)
 70:   1370.88   0.000075    0.38  0.000017  (-0.001473  0.003514 -0.001587)
 71:   1394.22   0.000432    2.18  0.000097  ( 0.009802  0.000776 -0.000293)
 72:   1402.94   0.000370    1.87  0.000082  (-0.008053  0.003767 -0.001791)
 73:   1408.48   0.000195    0.98  0.000043  ( 0.002116 -0.005663  0.002567)
 74:   1423.99   0.000375    1.89  0.000082  (-0.002528 -0.004394  0.007511)
 75:   1437.28   0.003350   16.93  0.000727  ( 0.004788  0.000798 -0.026530)
 76:   1450.79   0.002305   11.65  0.000496  ( 0.018239 -0.010355  0.007480)
 77:   1452.24   0.001551    7.84  0.000333  ( 0.004278 -0.002427 -0.017581)
 78:   1466.04   0.001778    8.98  0.000378  ( 0.008364  0.000240  0.017562)
 79:   1488.39   0.001308    6.61  0.000274  ( 0.001952 -0.009987  0.013062)
 80:   1502.85   0.000782    3.95  0.000162  ( 0.005632  0.006690  0.009273)
 81:   1509.24   0.001156    5.84  0.000239  ( 0.000854 -0.013997 -0.006516)
 82:   1511.20   0.000203    1.03  0.000042  (-0.006122 -0.001411  0.001578)
 83:   1512.81   0.000077    0.39  0.000016  ( 0.003572 -0.001714  0.000346)
 84:   1519.43   0.003007   15.20  0.000618  (-0.020152 -0.008564  0.011757)
 85:   1523.91   0.001880    9.50  0.000385  (-0.012274 -0.005288 -0.014364)
 86:   1524.73   0.000446    2.25  0.000091  ( 0.001584  0.000290 -0.009418)
 87:   1530.20   0.004231   21.38  0.000863  (-0.010433  0.026411  0.007519)
 88:   1533.07   0.001609    8.13  0.000328  ( 0.016477 -0.005658 -0.004904)
 89:   1536.82   0.000654    3.31  0.000133  ( 0.006058 -0.007337  0.006502)
 90:   1537.21   0.002281   11.53  0.000463  ( 0.014597  0.015488  0.003186)
 91:   1756.91   0.004680   23.65  0.000831  ( 0.006463 -0.019581  0.020149)
 92:   1803.16   0.001003    5.07  0.000174  (-0.007753 -0.001718  0.010509)
 93:   3084.63   0.006719   33.96  0.000680  ( 0.009617 -0.007947  0.022894)
 94:   3088.90   0.001396    7.06  0.000141  ( 0.010069  0.000251 -0.006296)
 95:   3095.00   0.007759   39.21  0.000782  ( 0.025862 -0.006281 -0.008602)
 96:   3098.15   0.004075   20.59  0.000410  (-0.005425  0.007324 -0.018093)
 97:   3100.92   0.004024   20.33  0.000405  (-0.008833 -0.007529 -0.016437)
 98:   3102.75   0.016077   81.25  0.001617  (-0.002601  0.036314  0.017074)
 99:   3111.60   0.004307   21.76  0.000432  ( 0.006670  0.017109  0.009732)
100:   3113.36   0.006046   30.56  0.000606  (-0.023574 -0.005148  0.004880)
101:   3114.97   0.006660   33.66  0.000667  (-0.015859  0.013510  0.015271)
102:   3124.80   0.004835   24.43  0.000483  (-0.008275  0.011094  0.017068)
103:   3139.77   0.002511   12.69  0.000250  (-0.002690  0.011612 -0.010368)
104:   3156.48   0.004332   21.89  0.000428  ( 0.011215 -0.017153 -0.002867)
105:   3160.74   0.004883   24.68  0.000482  (-0.004518 -0.001784 -0.021412)
106:   3170.68   0.002233   11.29  0.000220  ( 0.012032  0.008202 -0.002784)
107:   3171.26   0.002864   14.48  0.000282  (-0.008647 -0.014384 -0.000419)
108:   3177.14   0.000155    0.78  0.000015  ( 0.003001  0.000107  0.002492)
109:   3177.67   0.000958    4.84  0.000094  (-0.000214 -0.001519  0.009580)
110:   3178.73   0.005332   26.95  0.000523  ( 0.009508  0.020091  0.005425)
111:   3181.70   0.008025   40.56  0.000787  ( 0.024885 -0.001342 -0.012886)
112:   3191.65   0.003419   17.28  0.000334  (-0.009010  0.009965 -0.012401)
113:   3193.24   0.008343   42.16  0.000815  (-0.004446  0.011300 -0.025843)
114:   3197.11   0.002122   10.72  0.000207  ( 0.003519 -0.009744  0.009990)
115:   3230.03   0.002287   11.56  0.000221  ( 0.010213 -0.010756  0.001003)
116:   3289.35   0.001562    7.90  0.000148  ( 0.009569 -0.004884 -0.005728)

--------------------------
THERMOCHEMISTRY AT 298.15K
--------------------------

Temperature         ...   298.15 K
Pressure            ...     1.00 atm
Total Mass          ...   204.36 AMU
Quasi RRHO          ...     True
Cut-Off Frequency   ...     1.00 cm^-1

Throughout the following assumptions are being made:
  (1) The electronic state is orbitally nondegenerate
  (2) There are no thermally accessible electronically excited states
  (3) Hindered rotations indicated by low frequency modes are not
      treated as such but are treated as vibrations and this may
      cause some error
  (4) All equations used are the standard statistical mechanics
      equations for an ideal gas
  (5) All vibrations are strictly harmonic

freq.      71.10  E(vib)   ...       0.50
freq.      86.74  E(vib)   ...       0.48
freq.     108.79  E(vib)   ...       0.45
freq.     140.11  E(vib)   ...       0.41
freq.     166.42  E(vib)   ...       0.39
freq.     176.70  E(vib)   ...       0.38
freq.     198.12  E(vib)   ...       0.35
freq.     214.60  E(vib)   ...       0.34
freq.     228.76  E(vib)   ...       0.32
freq.     248.47  E(vib)   ...       0.31
freq.     256.11  E(vib)   ...       0.30
freq.     284.07  E(vib)   ...       0.28
freq.     320.16  E(vib)   ...       0.25
freq.     328.27  E(vib)   ...       0.24
freq.     341.17  E(vib)   ...       0.23
freq.     374.49  E(vib)   ...       0.21
freq.     403.67  E(vib)   ...       0.19
freq.     413.77  E(vib)   ...       0.19
freq.     469.50  E(vib)   ...       0.16
freq.     484.91  E(vib)   ...       0.15
freq.     490.11  E(vib)   ...       0.15
freq.     526.52  E(vib)   ...       0.13
freq.     551.46  E(vib)   ...       0.12
freq.     574.96  E(vib)   ...       0.11
freq.     600.66  E(vib)   ...       0.10
freq.     676.37  E(vib)   ...       0.08
freq.     740.04  E(vib)   ...       0.06
freq.     746.72  E(vib)   ...       0.06
freq.     805.39  E(vib)   ...       0.05
freq.     832.85  E(vib)   ...       0.04
freq.     863.66  E(vib)   ...       0.04
freq.     884.55  E(vib)   ...       0.04
freq.     909.29  E(vib)   ...       0.03
freq.     937.26  E(vib)   ...       0.03
freq.     940.71  E(vib)   ...       0.03
freq.     950.04  E(vib)   ...       0.03
freq.     962.99  E(vib)   ...       0.03
freq.     977.48  E(vib)   ...       0.03
freq.     978.96  E(vib)   ...       0.03
freq.     997.68  E(vib)   ...       0.02
freq.    1013.28  E(vib)   ...       0.02
freq.    1028.02  E(vib)   ...       0.02
freq.    1037.80  E(vib)   ...       0.02
freq.    1043.34  E(vib)   ...       0.02
freq.    1058.48  E(vib)   ...       0.02
freq.    1074.45  E(vib)   ...       0.02
freq.    1079.63  E(vib)   ...       0.02
freq.    1088.45  E(vib)   ...       0.02
freq.    1118.67  E(vib)   ...       0.01
freq.    1155.34  E(vib)   ...       0.01
freq.    1167.19  E(vib)   ...       0.01
freq.    1185.31  E(vib)   ...       0.01
freq.    1204.42  E(vib)   ...       0.01
freq.    1224.18  E(vib)   ...       0.01
freq.    1250.32  E(vib)   ...       0.01
freq.    1255.83  E(vib)   ...       0.01
freq.    1257.08  E(vib)   ...       0.01
freq.    1280.90  E(vib)   ...       0.01
freq.    1292.07  E(vib)   ...       0.01
freq.    1298.48  E(vib)   ...       0.01
freq.    1328.80  E(vib)   ...       0.01
freq.    1337.54  E(vib)   ...       0.01
freq.    1352.91  E(vib)   ...       0.01
freq.    1364.63  E(vib)   ...       0.01
freq.    1370.88  E(vib)   ...       0.01
freq.    1394.22  E(vib)   ...       0.00
freq.    1402.94  E(vib)   ...       0.00
freq.    1408.48  E(vib)   ...       0.00
freq.    1423.99  E(vib)   ...       0.00
freq.    1437.28  E(vib)   ...       0.00
freq.    1450.79  E(vib)   ...       0.00
freq.    1452.24  E(vib)   ...       0.00
freq.    1466.04  E(vib)   ...       0.00
freq.    1488.39  E(vib)   ...       0.00
freq.    1502.85  E(vib)   ...       0.00
freq.    1509.24  E(vib)   ...       0.00
freq.    1511.20  E(vib)   ...       0.00
freq.    1512.81  E(vib)   ...       0.00
freq.    1519.43  E(vib)   ...       0.00
freq.    1523.91  E(vib)   ...       0.00
freq.    1524.73  E(vib)   ...       0.00
freq.    1530.20  E(vib)   ...       0.00
freq.    1533.07  E(vib)   ...       0.00
freq.    1536.82  E(vib)   ...       0.00
freq.    1537.21  E(vib)   ...       0.00
freq.    1756.91  E(vib)   ...       0.00
freq.    1803.16  E(vib)   ...       0.00
freq.    3084.63  E(vib)   ...       0.00
freq.    3088.90  E(vib)   ...       0.00
freq.    3095.00  E(vib)   ...       0.00
freq.    3098.15  E(vib)   ...       0.00
freq.    3100.92  E(vib)   ...       0.00
freq.    3102.75  E(vib)   ...       0.00
freq.    3111.60  E(vib)   ...       0.00
freq.    3113.36  E(vib)   ...       0.00
freq.    3114.97  E(vib)   ...       0.00
freq.    3124.80  E(vib)   ...       0.00
freq.    3139.77  E(vib)   ...       0.00
freq.    3156.48  E(vib)   ...       0.00
freq.    3160.74  E(vib)   ...       0.00
freq.    3170.68  E(vib)   ...       0.00
freq.    3171.26  E(vib)   ...       0.00
freq.    3177.14  E(vib)   ...       0.00
freq.    3177.67  E(vib)   ...       0.00
freq.    3178.73  E(vib)   ...       0.00
freq.    3181.70  E(vib)   ...       0.00
freq.    3191.65  E(vib)   ...       0.00
freq.    3193.24  E(vib)   ...       0.00
freq.    3197.11  E(vib)   ...       0.00
freq.    3230.03  E(vib)   ...       0.00
freq.    3289.35  E(vib)   ...       0.00

------------
INNER ENERGY
------------

The inner energy is: U= E(el) + E(ZPE) + E(vib) + E(rot) + E(trans)
    E(el)   - is the total energy from the electronic structure calculation
              = E(kin-el) + E(nuc-el) + E(el-el) + E(nuc-nuc)
    E(ZPE)  - the the zero temperature vibrational energy from the frequency calculation
    E(vib)  - the the finite temperature correction to E(ZPE) due to population
              of excited vibrational states
    E(rot)  - is the rotational thermal energy
    E(trans)- is the translational thermal energy

Summary of contributions to the inner energy U:
Electronic energy                ...    -99.89737705 Eh
Zero point energy                ...      0.36452544 Eh     228.74 kcal/mol
Thermal vibrational correction   ...      0.01221733 Eh       7.67 kcal/mol
Thermal rotational correction    ...      0.00141627 Eh       0.89 kcal/mol
Thermal translational correction ...      0.00141627 Eh       0.89 kcal/mol
-----------------------------------------------------------------------
Total thermal energy                    -99.51780173 Eh

Summary of corrections to the electronic energy:
(perhaps to be used in another calculation)
Total thermal correction                  0.01504987 Eh       9.44 kcal/mol
Non-thermal (ZPE) correction              0.36452544 Eh     228.74 kcal/mol
-----------------------------------------------------------------------
Total correction                          0.37957532 Eh     238.19 kcal/mol

Rotational constants in cm-1:     0.028679     0.016984     0.014000

                             ****ORCA TERMINATED NORMALLY****
TOTAL RUN TIME: 0 days 0 hours 49 minutes 45 seconds 967 msec
