                         Program Version 6.0.1  -  RELEASE   -
|  1> ! wB97X-3c OPT FREQ TightSCF
|  2> %pal
|  3>   nprocs 40
|  4> end
|  5> * xyz 0 1
|  6> C      1.896611    -1.026251    -1.463889
|  7> C      1.694392     0.026359    -0.357698
|  8> C      0.405053    -0.256275     0.452817
|  9> C     -0.880844    -0.032508    -0.359752
| 10> C     -2.106858    -0.152013     0.514214
| 11> C     -3.362932     0.014683     0.048453
| 12> C     -3.631278     0.338834    -1.402202
| 13> C     -4.516027    -0.128730     1.007710
| 14> C      2.909735     0.066668     0.601312
| 15> C      4.183008     0.615685    -0.058038
| 16> O      5.188104     0.787918     0.903990
| 17> H      1.047419    -1.021226    -2.176044
| 18> H      1.994871    -2.042384    -1.025535
| 19> H      2.802488    -0.803040    -2.062238
| 20> H      1.594069     1.026454    -0.835598
| 21> H      0.423912    -1.298783     0.841550
| 22> H      0.374787     0.429285     1.329095
| 23> H     -0.855723     0.981661    -0.813663
| 24> H     -0.952625    -0.791210    -1.165862
| 25> H     -1.970020    -0.385807     1.568188
| 26> H     -3.144959     1.299511    -1.672449
| 27> H     -4.718206     0.437789    -1.603175
| 28> H     -3.236074    -0.470514    -2.051241
| 29> H     -4.419702     0.617781     1.824416
| 30> H     -5.491909     0.031362     0.503931
| 31> H     -4.514385    -1.149052     1.446462
| 32> H      3.111396    -0.950394     1.004161
| 33> H      2.669187     0.725945     1.464334
| 34> H      3.971756     1.582264    -0.570296
| 35> H      4.557758    -0.101654    -0.816048
| 36> H      4.976991     1.627641     1.389995
| 37> *
| 38>
| 39>                          ****END OF INPUT****
 Total Charge           Charge          ....    0
 Multiplicity           Mult            ....    1
 Number of Electrons    NEL             ....   66
Dispersion correction           -0.030766145
FINAL SINGLE POINT ENERGY       -85.086109252458
Dispersion correction             ... done (  0.1 sec)
Dispersion correction           -0.031011157
FINAL SINGLE POINT ENERGY       -85.095130939694
Dispersion correction             ... done (  0.1 sec)
Dispersion correction           -0.031066186
FINAL SINGLE POINT ENERGY       -85.095839680148
Dispersion correction             ... done (  0.1 sec)
FINAL SINGLE POINT ENERGY       -85.096106411856
FINAL SINGLE POINT ENERGY       -85.096167401890
FINAL SINGLE POINT ENERGY       -85.096233446060
FINAL SINGLE POINT ENERGY       -85.096278269117
FINAL SINGLE POINT ENERGY       -85.096308596908
FINAL SINGLE POINT ENERGY       -85.096330464166
FINAL SINGLE POINT ENERGY       -85.096425585603
FINAL SINGLE POINT ENERGY       -85.102043838581
FINAL SINGLE POINT ENERGY       -85.102165976475
FINAL SINGLE POINT ENERGY       -85.102155400708
FINAL SINGLE POINT ENERGY       -85.102469874903
FINAL SINGLE POINT ENERGY       -85.102450659314
FINAL SINGLE POINT ENERGY       -85.102696124695
FINAL SINGLE POINT ENERGY       -85.102739597534
Dispersion correction             ... done (  0.1 sec)
Dispersion correction           -0.031080141
FINAL SINGLE POINT ENERGY       -85.102751800127
Dispersion correction             ... done (  0.1 sec)
Dispersion correction           -0.031088751
FINAL SINGLE POINT ENERGY       -85.102756212356
Dispersion correction             ... done (  0.1 sec)
                    ***********************HURRAY********************

CARTESIAN COORDINATES (ANGSTROEM)
---------------------------------
  C      2.106325   -1.487383   -1.050806
  C      1.635091   -0.163057   -0.468892
  C      0.300025   -0.300886    0.255757
  C     -0.871260   -0.718860   -0.623801
  C     -2.150593   -0.786138    0.146509
  C     -3.207606    0.015706    0.058258
  C     -3.323024    1.178228   -0.877907
  C     -4.410777   -0.199211    0.924682
  C      2.670123    0.435512    0.477767
  C      3.979344    0.818091   -0.178785
  O      4.881068    1.420035    0.725209
  H      1.380803   -1.901492   -1.748137
  H      2.263625   -2.220365   -0.256948
  H      3.043242   -1.381279   -1.594560
  H      1.490759    0.540885   -1.297265
  H      0.411206   -1.015978    1.077182
  H      0.050759    0.655386    0.721662
  H     -0.952650   -0.032908   -1.466686
  H     -0.678195   -1.704473   -1.051301
  H     -2.196110   -1.586051    0.880737
  H     -3.535520    2.090987   -0.318842
  H     -4.157107    1.031368   -1.566281
  H     -2.426529    1.347668   -1.465826
  H     -4.285130   -1.054224    1.585326
  H     -4.609323    0.681241    1.538227
  H     -5.300801   -0.366265    0.315385
  H      2.875005   -0.262603    1.293681
  H      2.244300    1.332366    0.938451
  H      3.790909    1.479328   -1.031944
  H      4.497598   -0.059188   -0.559169
  H      4.484440    2.213559    1.085215

 Multiplicity           Mult            ....    1
 Number of Electrons    NEL             ....   66
 Basis Dimension        Dim             ....  243

ORBITAL ENERGIES
----------------

  NO   OCC          E(Eh)            E(eV)
   0   2.0000      -1.144717       -31.1493
   1   2.0000      -0.971925       -26.4474
   2   2.0000      -0.952223       -25.9113
   3   2.0000      -0.898079       -24.4380
   4   2.0000      -0.851763       -23.1776
   5   2.0000      -0.828055       -22.5325
   6   2.0000      -0.814380       -22.1604
   7   2.0000      -0.773528       -21.0488
   8   2.0000      -0.730807       -19.8863
   9   2.0000      -0.690631       -18.7930
  10   2.0000      -0.638218       -17.3668
  11   2.0000      -0.627698       -17.0805
  12   2.0000      -0.595879       -16.2147
  13   2.0000      -0.588292       -16.0082
  14   2.0000      -0.571171       -15.5424
  15   2.0000      -0.561961       -15.2917
  16   2.0000      -0.549043       -14.9402
  17   2.0000      -0.541281       -14.7290
  18   2.0000      -0.519057       -14.1242
  19   2.0000      -0.513896       -13.9838
  20   2.0000      -0.494656       -13.4603
  21   2.0000      -0.493235       -13.4216
  22   2.0000      -0.485257       -13.2045
  23   2.0000      -0.478754       -13.0276
  24   2.0000      -0.470626       -12.8064
  25   2.0000      -0.465318       -12.6619
  26   2.0000      -0.446575       -12.1519
  27   2.0000      -0.435429       -11.8486
  28   2.0000      -0.428245       -11.6531
  29   2.0000      -0.427179       -11.6241
  30   2.0000      -0.414452       -11.2778
  31   2.0000      -0.381844       -10.3905
  32   2.0000      -0.331535        -9.0215
  33   0.0000       0.080598         2.1932
  34   0.0000       0.087532         2.3819
  35   0.0000       0.091749         2.4966
  36   0.0000       0.096670         2.6305
  37   0.0000       0.100178         2.7260

MULLIKEN ATOMIC CHARGES
-----------------------
   0 C :   -0.033015
   1 C :   -0.114286
   2 C :   -0.047911
   3 C :   -0.056124
   4 C :   -0.021837
   5 C :   -0.072002
   6 C :   -0.050594
   7 C :   -0.049679
   8 C :   -0.042411
   9 C :    0.112689
  10 O :   -0.318464
  11 H :    0.024839
  12 H :    0.030611
  13 H :    0.023326
  14 H :    0.027880
  15 H :    0.028413
  16 H :    0.032630
  17 H :    0.015227
  18 H :    0.044803
  19 H :    0.005677
  20 H :    0.036098
  21 H :    0.040542
  22 H :    0.019480
  23 H :    0.025791
  24 H :    0.034339
  25 H :    0.034559
  26 H :    0.039456
  27 H :    0.019410
  28 H :    0.024259
  29 H :    0.043756
  30 H :    0.142535
Sum of atomic charges:    0.0000000

LOEWDIN ATOMIC CHARGES
----------------------
   0 C :   -0.104554
   1 C :   -0.076317
   2 C :   -0.074835
   3 C :   -0.087083
   4 C :   -0.054869
   5 C :   -0.056365
   6 C :   -0.106376
   7 C :   -0.108096
   8 C :   -0.081308
   9 C :   -0.047629
  10 O :   -0.075193
  11 H :    0.041801
  12 H :    0.044822
  13 H :    0.041556
  14 H :    0.042430
  15 H :    0.044396
  16 H :    0.046086
  17 H :    0.039959
  18 H :    0.045213
  19 H :    0.038054
  20 H :    0.049785
  21 H :    0.050331
  22 H :    0.042533
  23 H :    0.048901
  24 H :    0.047272
  25 H :    0.047930
  26 H :    0.047694
  27 H :    0.041617
  28 H :    0.037638
  29 H :    0.050239
  30 H :    0.024364

  Mayer bond orders larger than 0.100000
B(  0-C ,  1-C ) :   0.9888 B(  0-C , 11-H ) :   0.9961 B(  0-C , 12-H ) :   0.9885
B(  0-C , 13-H ) :   0.9958 B(  1-C ,  2-C ) :   0.9970 B(  1-C ,  8-C ) :   0.9932
B(  1-C , 14-H ) :   0.9921 B(  2-C ,  3-C ) :   0.9697 B(  2-C , 15-H ) :   0.9939
B(  2-C , 16-H ) :   0.9983 B(  3-C ,  4-C ) :   1.0327 B(  3-C , 17-H ) :   0.9964
B(  3-C , 18-H ) :   0.9833 B(  4-C ,  5-C ) :   1.8912 B(  4-C , 19-H ) :   0.9943
B(  5-C ,  6-C ) :   1.0344 B(  5-C ,  7-C ) :   1.0304 B(  6-C , 20-H ) :   0.9774
B(  6-C , 21-H ) :   0.9772 B(  6-C , 22-H ) :   0.9912 B(  7-C , 23-H ) :   0.9924
B(  7-C , 24-H ) :   0.9800 B(  7-C , 25-H ) :   0.9802 B(  8-C ,  9-C ) :   0.9794
B(  8-C , 26-H ) :   0.9879 B(  8-C , 27-H ) :   0.9970 B(  9-C , 10-O ) :   0.9509
B(  9-C , 28-H ) :   0.9997 B(  9-C , 29-H ) :   1.0012 B( 10-O , 30-H ) :   1.0698

Dispersion correction           -0.031094189
FINAL SINGLE POINT ENERGY       -85.102758440744

DIPOLE MOMENT
-------------

Method             : SCF
Type of density    : Electron Density
Multiplicity       :   1
Irrep              :   0
Energy             :   -85.0716642512525993 Eh
Relativity type    :
Basis              : AO
                                X                 Y                 Z
Electronic contribution:      1.332040136       0.084141286       1.291410193
Nuclear contribution   :     -2.095508280       0.187117254      -1.496643892
                        -----------------------------------------
Total Dipole Moment    :     -0.763468144       0.271258540      -0.205233699
                        -----------------------------------------
Magnitude (a.u.)       :      0.835814377
Magnitude (Debye)      :      2.124471313

VIBRATIONAL FREQUENCIES
-----------------------

Scaling factor for frequencies =  1.000000000  (already applied!)

     0:       0.00 cm**-1
     1:       0.00 cm**-1
     2:       0.00 cm**-1
     3:       0.00 cm**-1
     4:       0.00 cm**-1
     5:       0.00 cm**-1
     6:      17.99 cm**-1
     7:      35.49 cm**-1
     8:      65.25 cm**-1
     9:      74.30 cm**-1
    10:      78.55 cm**-1
    11:     120.97 cm**-1
    12:     128.64 cm**-1
    13:     158.86 cm**-1
    14:     201.78 cm**-1
    15:     239.86 cm**-1
    16:     250.64 cm**-1
    17:     275.39 cm**-1
    18:     302.13 cm**-1
    19:     310.89 cm**-1
    20:     360.00 cm**-1
    21:     403.71 cm**-1
    22:     411.70 cm**-1
    23:     457.64 cm**-1
    24:     509.03 cm**-1
    25:     520.60 cm**-1
    26:     584.58 cm**-1
    27:     765.72 cm**-1
    28:     798.77 cm**-1
    29:     833.47 cm**-1
    30:     872.39 cm**-1
    31:     905.36 cm**-1
    32:     970.27 cm**-1
    33:     978.16 cm**-1
    34:     985.90 cm**-1
    35:    1017.39 cm**-1
    36:    1034.28 cm**-1
    37:    1052.38 cm**-1
    38:    1061.92 cm**-1
    39:    1097.18 cm**-1
    40:    1128.70 cm**-1
    41:    1132.83 cm**-1
    42:    1136.52 cm**-1
    43:    1147.44 cm**-1
    44:    1170.45 cm**-1
    45:    1180.45 cm**-1
    46:    1219.50 cm**-1
    47:    1250.49 cm**-1
    48:    1284.10 cm**-1
    49:    1296.97 cm**-1
    50:    1331.04 cm**-1
    51:    1350.31 cm**-1
    52:    1353.84 cm**-1
    53:    1390.88 cm**-1
    54:    1407.71 cm**-1
    55:    1415.15 cm**-1
    56:    1419.42 cm**-1
    57:    1445.32 cm**-1
    58:    1450.60 cm**-1
    59:    1455.16 cm**-1
    60:    1459.25 cm**-1
    61:    1468.75 cm**-1
    62:    1502.03 cm**-1
    63:    1505.71 cm**-1
    64:    1511.69 cm**-1
    65:    1522.31 cm**-1
    66:    1522.56 cm**-1
    67:    1527.31 cm**-1
    68:    1528.50 cm**-1
    69:    1536.38 cm**-1
    70:    1541.98 cm**-1
    71:    1547.60 cm**-1
    72:    1809.25 cm**-1
    73:    3061.26 cm**-1
    74:    3070.73 cm**-1
    75:    3076.03 cm**-1
    76:    3081.32 cm**-1
    77:    3093.54 cm**-1
    78:    3099.32 cm**-1
    79:    3100.43 cm**-1
    80:    3110.67 cm**-1
    81:    3131.21 cm**-1
    82:    3137.30 cm**-1
    83:    3167.22 cm**-1
    84:    3168.25 cm**-1
    85:    3169.32 cm**-1
    86:    3184.26 cm**-1
    87:    3191.37 cm**-1
    88:    3194.71 cm**-1
    89:    3203.44 cm**-1
    90:    3207.01 cm**-1
    91:    3228.15 cm**-1
    92:    3961.95 cm**-1

IR SPECTRUM
-----------

 Mode   freq       eps      Int      T**2         TX        TY        TZ
       cm**-1   L/(mol*cm) km/mol    a.u.
----------------------------------------------------------------------------
  6:     17.99   0.000009    0.04  0.000149  ( 0.005005 -0.007372 -0.008365)
  7:     35.49   0.000184    0.93  0.001618  ( 0.007495  0.002648 -0.039432)
  8:     65.25   0.000299    1.51  0.001431  (-0.013036 -0.008159  0.034556)
  9:     74.30   0.000290    1.47  0.001219  ( 0.005080  0.025192  0.023635)
 10:     78.55   0.000256    1.29  0.001016  (-0.006382 -0.007392  0.030335)
 11:    120.97   0.000373    1.89  0.000963  (-0.006634 -0.025796 -0.015927)
 12:    128.64   0.000066    0.33  0.000160  ( 0.004737  0.006119  0.010022)
 13:    158.86   0.000340    1.72  0.000668  ( 0.010115  0.016485  0.017135)
 14:    201.78   0.000009    0.04  0.000013  (-0.002173 -0.001357  0.002626)
 15:    239.86   0.000633    3.20  0.000823  (-0.013690 -0.017561  0.018095)
 16:    250.64   0.003031   15.32  0.003773  (-0.026070 -0.043994  0.034034)
 17:    275.39   0.020912  105.68  0.023697  ( 0.076419  0.092789 -0.096163)
 18:    302.13   0.000021    0.10  0.000021  ( 0.001889 -0.003886 -0.001652)
 19:    310.89   0.000119    0.60  0.000120  ( 0.008030 -0.000174 -0.007421)
 20:    360.00   0.002748   13.89  0.002382  (-0.032130 -0.027885  0.023926)
 21:    403.71   0.000230    1.16  0.000178  ( 0.005799 -0.005423 -0.010729)
 22:    411.70   0.000380    1.92  0.000288  (-0.005301 -0.003760 -0.015677)
 23:    457.64   0.000810    4.09  0.000553  (-0.006318 -0.006974 -0.021541)
 24:    509.03   0.000640    3.24  0.000393  (-0.016687 -0.008714  0.006180)
 25:    520.60   0.000235    1.19  0.000141  ( 0.009645 -0.006887 -0.000615)
 26:    584.58   0.000670    3.39  0.000358  ( 0.007048 -0.013125  0.011660)
 27:    765.72   0.000331    1.67  0.000135  (-0.004802  0.010355  0.002116)
 28:    798.77   0.000462    2.34  0.000181  (-0.006182  0.009768 -0.006848)
 29:    833.47   0.000599    3.03  0.000224  (-0.012588 -0.003143 -0.007491)
 30:    872.39   0.001765    8.92  0.000631  (-0.012036 -0.015359 -0.015828)
 31:    905.36   0.000691    3.49  0.000238  ( 0.006243  0.012252  0.006998)
 32:    970.27   0.000529    2.67  0.000170  (-0.009797 -0.002364  0.008282)
 33:    978.16   0.002770   14.00  0.000884  ( 0.023780  0.013326  0.011864)
 34:    985.90   0.000160    0.81  0.000051  ( 0.006242  0.001482 -0.003084)
 35:   1017.39   0.000920    4.65  0.000282  (-0.009166 -0.008332 -0.011351)
 36:   1034.28   0.000527    2.66  0.000159  (-0.005109 -0.009149 -0.007016)
 37:   1052.38   0.002504   12.66  0.000743  ( 0.016972  0.012930  0.016953)
 38:   1061.92   0.002478   12.53  0.000728  ( 0.019573  0.004772  0.017957)
 39:   1097.18   0.007276   36.77  0.002069  (-0.030313 -0.019514 -0.027744)
 40:   1128.70   0.000343    1.73  0.000095  (-0.008502 -0.002526 -0.004012)
 41:   1132.83   0.014316   72.35  0.003944  ( 0.055625  0.020483  0.020735)
 42:   1136.52   0.001148    5.80  0.000315  (-0.000076  0.016137  0.007398)
 43:   1147.44   0.008397   42.43  0.002284  ( 0.029413  0.027388  0.025853)
 44:   1170.45   0.001742    8.80  0.000464  ( 0.021205 -0.003155 -0.002179)
 45:   1180.45   0.000212    1.07  0.000056  (-0.005538  0.001009 -0.004940)
 46:   1219.50   0.001507    7.62  0.000386  ( 0.018426  0.004960 -0.004647)
 47:   1250.49   0.001493    7.54  0.000372  (-0.012058 -0.006085 -0.013786)
 48:   1284.10   0.001323    6.68  0.000321  ( 0.017657  0.001622  0.002658)
 49:   1296.97   0.000394    1.99  0.000095  ( 0.008727  0.001806  0.003911)
 50:   1331.04   0.000807    4.08  0.000189  (-0.009242 -0.002404 -0.009899)
 51:   1350.31   0.000241    1.22  0.000056  (-0.003754 -0.005953 -0.002495)
 52:   1353.84   0.000684    3.46  0.000158  (-0.010639  0.002589 -0.006146)
 53:   1390.88   0.000104    0.53  0.000023  ( 0.002389  0.002603  0.003290)
 54:   1407.71   0.002637   13.33  0.000585  (-0.023586 -0.000806 -0.005257)
 55:   1415.15   0.000237    1.20  0.000052  (-0.002346  0.000602 -0.006817)
 56:   1419.42   0.000289    1.46  0.000063  (-0.004945 -0.004121 -0.004691)
 57:   1445.32   0.000339    1.71  0.000073  (-0.000394 -0.007518 -0.004055)
 58:   1450.60   0.000869    4.39  0.000187  ( 0.006432  0.005572 -0.010697)
 59:   1455.16   0.003240   16.37  0.000695  (-0.004138  0.022490  0.013113)
 60:   1459.25   0.003006   15.19  0.000643  (-0.004358  0.020668 -0.014027)
 61:   1468.75   0.006996   35.35  0.001486  (-0.032843 -0.011223 -0.016787)
 62:   1502.03   0.000136    0.69  0.000028  ( 0.004066  0.003058  0.001563)
 63:   1505.71   0.000197    0.99  0.000041  (-0.005632 -0.000600  0.002949)
 64:   1511.69   0.000491    2.48  0.000101  (-0.005476 -0.005164  0.006682)
 65:   1522.31   0.003898   19.70  0.000799  (-0.007934 -0.017869 -0.020417)
 66:   1522.56   0.000662    3.35  0.000136  (-0.008850 -0.001442 -0.007437)
 67:   1527.31   0.001290    6.52  0.000264  (-0.004563  0.012572 -0.009200)
 68:   1528.50   0.000484    2.45  0.000099  (-0.009182 -0.001880 -0.003314)
 69:   1536.38   0.001290    6.52  0.000262  (-0.012209  0.000530  0.010615)
 70:   1541.98   0.003483   17.60  0.000705  (-0.003560  0.000383  0.026309)
 71:   1547.60   0.000753    3.80  0.000152  ( 0.004872  0.000278 -0.011313)
 72:   1809.25   0.000606    3.06  0.000105  ( 0.007910 -0.006098  0.002181)
 73:   3061.26   0.001402    7.08  0.000143  (-0.001414  0.010079 -0.006271)
 74:   3070.73   0.010357   52.34  0.001053  ( 0.002347 -0.008586  0.031198)
 75:   3076.03   0.001604    8.11  0.000163  (-0.001698  0.012100  0.003668)
 76:   3081.32   0.010463   52.88  0.001060  (-0.000071  0.006252  0.031946)
 77:   3093.54   0.006795   34.34  0.000685  (-0.022044 -0.003150  0.013769)
 78:   3099.32   0.007218   36.48  0.000727  (-0.020265  0.017572 -0.002704)
 79:   3100.43   0.005094   25.75  0.000513  (-0.010382  0.020100 -0.000980)
 80:   3110.67   0.005325   26.91  0.000534  (-0.003376  0.007532  0.021590)
 81:   3131.21   0.001189    6.01  0.000118  ( 0.001864 -0.005745 -0.009055)
 82:   3137.30   0.006208   31.37  0.000618  (-0.006143  0.023163 -0.006580)
 83:   3167.22   0.003513   17.75  0.000346  ( 0.007114 -0.014298  0.009544)
 84:   3168.25   0.000180    0.91  0.000018  (-0.002373  0.002146 -0.002734)
 85:   3169.32   0.004494   22.71  0.000442  ( 0.006927  0.014200  0.013887)
 86:   3184.26   0.004724   23.87  0.000463  ( 0.001435 -0.019074  0.009851)
 87:   3191.37   0.004695   23.73  0.000459  ( 0.003906 -0.008919 -0.019088)
 88:   3194.71   0.003155   15.94  0.000308  ( 0.002951  0.014545 -0.009375)
 89:   3203.44   0.004354   22.00  0.000424  (-0.020517 -0.001534 -0.000912)
 90:   3207.01   0.004152   20.98  0.000404  (-0.003173  0.016420 -0.011151)
 91:   3228.15   0.003255   16.45  0.000315  (-0.013715 -0.004576  0.010276)
 92:   3961.95   0.008431   42.61  0.000664  (-0.001346  0.022683  0.012155)

--------------------------
THERMOCHEMISTRY AT 298.15K
--------------------------

Temperature         ...   298.15 K
Pressure            ...     1.00 atm
Total Mass          ...   156.27 AMU
Quasi RRHO          ...     True
Cut-Off Frequency   ...     1.00 cm^-1

Throughout the following assumptions are being made:
  (1) The electronic state is orbitally nondegenerate
  (2) There are no thermally accessible electronically excited states
  (3) Hindered rotations indicated by low frequency modes are not
      treated as such but are treated as vibrations and this may
      cause some error
  (4) All equations used are the standard statistical mechanics
      equations for an ideal gas
  (5) All vibrations are strictly harmonic

freq.      17.99  E(vib)   ...       0.57
freq.      35.49  E(vib)   ...       0.54
freq.      65.25  E(vib)   ...       0.50
freq.      74.30  E(vib)   ...       0.49
freq.      78.55  E(vib)   ...       0.49
freq.     120.97  E(vib)   ...       0.44
freq.     128.64  E(vib)   ...       0.43
freq.     158.86  E(vib)   ...       0.39
freq.     201.78  E(vib)   ...       0.35
freq.     239.86  E(vib)   ...       0.31
freq.     250.64  E(vib)   ...       0.30
freq.     275.39  E(vib)   ...       0.28
freq.     302.13  E(vib)   ...       0.26
freq.     310.89  E(vib)   ...       0.26
freq.     360.00  E(vib)   ...       0.22
freq.     403.71  E(vib)   ...       0.19
freq.     411.70  E(vib)   ...       0.19
freq.     457.64  E(vib)   ...       0.16
freq.     509.03  E(vib)   ...       0.14
freq.     520.60  E(vib)   ...       0.13
freq.     584.58  E(vib)   ...       0.11
freq.     765.72  E(vib)   ...       0.06
freq.     798.77  E(vib)   ...       0.05
freq.     833.47  E(vib)   ...       0.04
freq.     872.39  E(vib)   ...       0.04
freq.     905.36  E(vib)   ...       0.03
freq.     970.27  E(vib)   ...       0.03
freq.     978.16  E(vib)   ...       0.03
freq.     985.90  E(vib)   ...       0.02
freq.    1017.39  E(vib)   ...       0.02
freq.    1034.28  E(vib)   ...       0.02
freq.    1052.38  E(vib)   ...       0.02
freq.    1061.92  E(vib)   ...       0.02
freq.    1097.18  E(vib)   ...       0.02
freq.    1128.70  E(vib)   ...       0.01
freq.    1132.83  E(vib)   ...       0.01
freq.    1136.52  E(vib)   ...       0.01
freq.    1147.44  E(vib)   ...       0.01
freq.    1170.45  E(vib)   ...       0.01
freq.    1180.45  E(vib)   ...       0.01
freq.    1219.50  E(vib)   ...       0.01
freq.    1250.49  E(vib)   ...       0.01
freq.    1284.10  E(vib)   ...       0.01
freq.    1296.97  E(vib)   ...       0.01
freq.    1331.04  E(vib)   ...       0.01
freq.    1350.31  E(vib)   ...       0.01
freq.    1353.84  E(vib)   ...       0.01
freq.    1390.88  E(vib)   ...       0.00
freq.    1407.71  E(vib)   ...       0.00
freq.    1415.15  E(vib)   ...       0.00
freq.    1419.42  E(vib)   ...       0.00
freq.    1445.32  E(vib)   ...       0.00
freq.    1450.60  E(vib)   ...       0.00
freq.    1455.16  E(vib)   ...       0.00
freq.    1459.25  E(vib)   ...       0.00
freq.    1468.75  E(vib)   ...       0.00
freq.    1502.03  E(vib)   ...       0.00
freq.    1505.71  E(vib)   ...       0.00
freq.    1511.69  E(vib)   ...       0.00
freq.    1522.31  E(vib)   ...       0.00
freq.    1522.56  E(vib)   ...       0.00
freq.    1527.31  E(vib)   ...       0.00
freq.    1528.50  E(vib)   ...       0.00
freq.    1536.38  E(vib)   ...       0.00
freq.    1541.98  E(vib)   ...       0.00
freq.    1547.60  E(vib)   ...       0.00
freq.    1809.25  E(vib)   ...       0.00
freq.    3061.26  E(vib)   ...       0.00
freq.    3070.73  E(vib)   ...       0.00
freq.    3076.03  E(vib)   ...       0.00
freq.    3081.32  E(vib)   ...       0.00
freq.    3093.54  E(vib)   ...       0.00
freq.    3099.32  E(vib)   ...       0.00
freq.    3100.43  E(vib)   ...       0.00
freq.    3110.67  E(vib)   ...       0.00
freq.    3131.21  E(vib)   ...       0.00
freq.    3137.30  E(vib)   ...       0.00
freq.    3167.22  E(vib)   ...       0.00
freq.    3168.25  E(vib)   ...       0.00
freq.    3169.32  E(vib)   ...       0.00
freq.    3184.26  E(vib)   ...       0.00
freq.    3191.37  E(vib)   ...       0.00
freq.    3194.71  E(vib)   ...       0.00
freq.    3203.44  E(vib)   ...       0.00
freq.    3207.01  E(vib)   ...       0.00
freq.    3228.15  E(vib)   ...       0.00
freq.    3961.95  E(vib)   ...       0.00

------------
INNER ENERGY
------------

The inner energy is: U= E(el) + E(ZPE) + E(vib) + E(rot) + E(trans)
    E(el)   - is the total energy from the electronic structure calculation
              = E(kin-el) + E(nuc-el) + E(el-el) + E(nuc-nuc)
    E(ZPE)  - the the zero temperature vibrational energy from the frequency calculation
    E(vib)  - the the finite temperature correction to E(ZPE) due to population
              of excited vibrational states
    E(rot)  - is the rotational thermal energy
    E(trans)- is the translational thermal energy

Summary of contributions to the inner energy U:
Electronic energy                ...    -85.10275844 Eh
Zero point energy                ...      0.29039543 Eh     182.23 kcal/mol
Thermal vibrational correction   ...      0.01169588 Eh       7.34 kcal/mol
Thermal rotational correction    ...      0.00141627 Eh       0.89 kcal/mol
Thermal translational correction ...      0.00141627 Eh       0.89 kcal/mol
-----------------------------------------------------------------------
Total thermal energy                    -84.79783459 Eh

Summary of corrections to the electronic energy:
(perhaps to be used in another calculation)
Total thermal correction                  0.01452842 Eh       9.12 kcal/mol
Non-thermal (ZPE) correction              0.29039543 Eh     182.23 kcal/mol
-----------------------------------------------------------------------
Total correction                          0.30492385 Eh     191.34 kcal/mol

--------
ENTHALPY
--------

The enthalpy is H = U + kB*T
                kB is Boltzmann's constant
Total thermal energy              ...    -84.79783459 Eh
Thermal Enthalpy correction       ...      0.00094421 Eh       0.59 kcal/mol
-----------------------------------------------------------------------
Total Enthalpy                    ...    -84.79689038 Eh

Note: Only C1 symmetry has been detected, increase convergence thresholds
      if your molecule has a higher symmetry. Symmetry factor of 1.0 is
      used for the rotational entropy correction.

Note: Rotational entropy computed according to Herzberg
Infrared and Raman Spectra, Chapter V,1, Van Nostrand Reinhold, 1945
Point Group:  C1, Symmetry Number:   1
Rotational constants in cm-1:     0.080958     0.010778     0.010303

Vibrational entropy computed according to the QRRHO of S. Grimme

                             ****ORCA TERMINATED NORMALLY****
TOTAL RUN TIME: 0 days 0 hours 46 minutes 35 seconds 130 msec
