                         Program Version 6.0.1  -  RELEASE   -
|  1> ! wB97X-3c OPT FREQ TightSCF
|  2> %pal
|  3>   nprocs 40
|  4> end
|  5> * xyz 0 1
|  6> C      3.379246     1.496837     0.056130
|  7> C      2.429732     0.331961    -0.056075
|  8> C      1.436780     0.360108    -0.974036
|  9> C      0.424377    -0.742704    -1.186407
| 10> C     -1.022070    -0.223431    -1.071999
| 11> C     -1.512145     0.064064     0.380708
| 12> C     -1.633428    -1.237266     1.195854
| 13> C     -2.871414     0.751309     0.341227
| 14> C     -3.957759     0.195506    -0.210746
| 15> O     -0.600937     0.904546     1.048498
| 16> C      2.627341    -0.832409     0.880597
| 17> H      3.313253     1.929945     1.076229
| 18> H      3.152355     2.298940    -0.678595
| 19> H      4.417717     1.146121    -0.120218
| 20> H      1.349922     1.223189    -1.629075
| 21> H      0.577100    -1.612534    -0.519929
| 22> H      0.571146    -1.121707    -2.220330
| 23> H     -1.122287     0.698688    -1.687562
| 24> H     -1.688260    -0.981960    -1.537944
| 25> H     -0.634768    -1.670259     1.406370
| 26> H     -2.238807    -1.995879     0.655576
| 27> H     -2.116528    -1.032722     2.175855
| 28> H     -2.973092     1.738802     0.783361
| 29> H     -3.922071    -0.789566    -0.663611
| 30> H     -4.900648     0.732560    -0.208211
| 31> H     -0.530541     1.750979     0.532300
| 32> H      1.729842    -0.962302     1.519865
| 33> H      2.816519    -1.760252     0.300809
| 34> H      3.499426    -0.660564     1.546659
| 35> *
| 36>
| 37>                          ****END OF INPUT****
 Total Charge           Charge          ....    0
 Multiplicity           Mult            ....    1
 Number of Electrons    NEL             ....   64
Dispersion correction           -0.032323279
FINAL SINGLE POINT ENERGY       -83.847428876179
Dispersion correction             ... done (  0.1 sec)
Dispersion correction           -0.032258097
FINAL SINGLE POINT ENERGY       -83.856666938000
Dispersion correction             ... done (  0.1 sec)
Dispersion correction           -0.032473784
FINAL SINGLE POINT ENERGY       -83.858100427721
Dispersion correction             ... done (  0.1 sec)
FINAL SINGLE POINT ENERGY       -83.858766473271
FINAL SINGLE POINT ENERGY       -83.859086940786
FINAL SINGLE POINT ENERGY       -83.859425887886
FINAL SINGLE POINT ENERGY       -83.859740885790
FINAL SINGLE POINT ENERGY       -83.860054848256
FINAL SINGLE POINT ENERGY       -83.860525892968
FINAL SINGLE POINT ENERGY       -83.860805815710
FINAL SINGLE POINT ENERGY       -83.861896549972
FINAL SINGLE POINT ENERGY       -83.861959505060
FINAL SINGLE POINT ENERGY       -83.862049869932
FINAL SINGLE POINT ENERGY       -83.862145281029
FINAL SINGLE POINT ENERGY       -83.862234240099
FINAL SINGLE POINT ENERGY       -83.862272115312
FINAL SINGLE POINT ENERGY       -83.862280104845
Dispersion correction             ... done (  0.1 sec)
Dispersion correction           -0.032394073
FINAL SINGLE POINT ENERGY       -83.862282011344
Dispersion correction             ... done (  0.1 sec)
Dispersion correction           -0.032390629
FINAL SINGLE POINT ENERGY       -83.862282546169
Dispersion correction             ... done (  0.1 sec)
                    ***********************HURRAY********************

CARTESIAN COORDINATES (ANGSTROEM)
---------------------------------
  C      3.298397    1.579807   -0.312884
  C      2.364987    0.419104   -0.149319
  C      1.390505    0.200321   -1.028769
  C      0.384307   -0.908894   -1.057689
  C     -1.056943   -0.410610   -0.942216
  C     -1.570529   -0.237464    0.487705
  C     -1.853232   -1.580802    1.140271
  C     -2.830841    0.591044    0.549163
  C     -3.609887    0.954293   -0.455710
  O     -0.595101    0.384816    1.316292
  C      2.639724   -0.431619    1.049987
  H      3.256337    2.237853    0.556765
  H      3.065176    2.166501   -1.198911
  H      4.330315    1.234219   -0.394961
  H      1.303978    0.902418   -1.855022
  H      0.595218   -1.655144   -0.295801
  H      0.487380   -1.421154   -2.016906
  H     -1.136739    0.543702   -1.468132
  H     -1.729090   -1.098376   -1.456426
  H     -0.957496   -2.198396    1.153681
  H     -2.642605   -2.106750    0.607348
  H     -2.169974   -1.429593    2.170718
  H     -3.092768    0.887642    1.559939
  H     -3.400894    0.685086   -1.482663
  H     -4.501947    1.540108   -0.278872
  H     -0.148002    1.073839    0.821435
  H      1.901188   -1.211276    1.200193
  H      3.624600   -0.894410    0.965594
  H      2.653940    0.183737    1.950491

 Multiplicity           Mult            ....    1
 Number of Electrons    NEL             ....   64
 Basis Dimension        Dim             ....  233

ORBITAL ENERGIES
----------------

  NO   OCC          E(Eh)            E(eV)
   0   2.0000      -1.146455       -31.1966
   1   2.0000      -0.964203       -26.2373
   2   2.0000      -0.945787       -25.7362
   3   2.0000      -0.903777       -24.5930
   4   2.0000      -0.867021       -23.5928
   5   2.0000      -0.826853       -22.4998
   6   2.0000      -0.816956       -22.2305
   7   2.0000      -0.760911       -20.7054
   8   2.0000      -0.731667       -19.9097
   9   2.0000      -0.671684       -18.2775
  10   2.0000      -0.642489       -17.4830
  11   2.0000      -0.618899       -16.8411
  12   2.0000      -0.597314       -16.2537
  13   2.0000      -0.579583       -15.7712
  14   2.0000      -0.566417       -15.4130
  15   2.0000      -0.553368       -15.0579
  16   2.0000      -0.548860       -14.9352
  17   2.0000      -0.539028       -14.6677
  18   2.0000      -0.509900       -13.8751
  19   2.0000      -0.501212       -13.6387
  20   2.0000      -0.493767       -13.4361
  21   2.0000      -0.490056       -13.3351
  22   2.0000      -0.483749       -13.1635
  23   2.0000      -0.476243       -12.9592
  24   2.0000      -0.470807       -12.8113
  25   2.0000      -0.454404       -12.3649
  26   2.0000      -0.451600       -12.2887
  27   2.0000      -0.427837       -11.6420
  28   2.0000      -0.420223       -11.4348
  29   2.0000      -0.387708       -10.5501
  30   2.0000      -0.366043        -9.9605
  31   2.0000      -0.333307        -9.0697
  32   0.0000       0.078857         2.1458
  33   0.0000       0.090847         2.4721
  34   0.0000       0.091157         2.4805
  35   0.0000       0.102642         2.7930
  36   0.0000       0.103461         2.8153

MULLIKEN ATOMIC CHARGES
-----------------------
   0 C :   -0.046873
   1 C :   -0.086880
   2 C :   -0.037848
   3 C :   -0.035896
   4 C :   -0.032332
   5 C :   -0.069577
   6 C :    0.003409
   7 C :    0.016250
   8 C :   -0.043887
   9 O :   -0.289078
  10 C :   -0.039085
  11 H :    0.033758
  12 H :    0.025263
  13 H :    0.036512
  14 H :    0.008549
  15 H :    0.011314
  16 H :    0.046725
  17 H :    0.034726
  18 H :    0.041930
  19 H :    0.020925
  20 H :    0.036561
  21 H :    0.039807
  22 H :    0.019219
  23 H :    0.018832
  24 H :    0.027621
  25 H :    0.157323
  26 H :    0.024624
  27 H :    0.039577
  28 H :    0.038530
Sum of atomic charges:   -0.0000000

LOEWDIN ATOMIC CHARGES
----------------------
   0 C :   -0.107989
   1 C :   -0.053237
   2 C :   -0.065089
   3 C :   -0.080342
   4 C :   -0.073583
   5 C :   -0.063107
   6 C :   -0.092116
   7 C :   -0.035046
   8 C :   -0.076248
   9 O :   -0.051567
  10 C :   -0.103095
  11 H :    0.047475
  12 H :    0.048410
  13 H :    0.049659
  14 H :    0.035394
  15 H :    0.040529
  16 H :    0.052339
  17 H :    0.044472
  18 H :    0.051138
  19 H :    0.043168
  20 H :    0.048182
  21 H :    0.050890
  22 H :    0.048304
  23 H :    0.032426
  24 H :    0.038089
  25 H :    0.024801
  26 H :    0.044685
  27 H :    0.049651
  28 H :    0.051810

  Mayer bond orders larger than 0.100000
B(  0-C ,  1-C ) :   1.0312 B(  0-C , 11-H ) :   0.9786 B(  0-C , 12-H ) :   0.9915
B(  0-C , 13-H ) :   0.9804 B(  1-C ,  2-C ) :   1.8945 B(  1-C , 10-C ) :   1.0383
B(  2-C ,  3-C ) :   1.0169 B(  2-C , 14-H ) :   0.9905 B(  3-C ,  4-C ) :   0.9896
B(  3-C , 15-H ) :   0.9927 B(  3-C , 16-H ) :   0.9864 B(  4-C ,  5-C ) :   0.9853
B(  4-C , 17-H ) :   0.9857 B(  4-C , 18-H ) :   0.9885 B(  5-C ,  6-C ) :   1.0031
B(  5-C ,  7-C ) :   1.0590 B(  5-C ,  9-O ) :   0.9892 B(  6-C , 19-H ) :   0.9878
B(  6-C , 20-H ) :   0.9865 B(  6-C , 21-H ) :   0.9883 B(  7-C ,  8-C ) :   1.9333
B(  7-C , 22-H ) :   0.9969 B(  8-C , 23-H ) :   0.9945 B(  8-C , 24-H ) :   0.9916
B(  9-O , 25-H ) :   1.0484 B( 10-C , 26-H ) :   0.9880 B( 10-C , 27-H ) :   0.9763
B( 10-C , 28-H ) :   0.9755

Dispersion correction           -0.032390840
FINAL SINGLE POINT ENERGY       -83.862282693333

DIPOLE MOMENT
-------------

Method             : SCF
Type of density    : Electron Density
Multiplicity       :   1
Irrep              :   0
Energy             :   -83.8298918533968447 Eh
Relativity type    :
Basis              : AO
                                X                 Y                 Z
Electronic contribution:     -3.762191414       1.388167897      -0.814862332
Nuclear contribution   :      3.866675348      -1.405175512       0.341951668
                        -----------------------------------------
Total Dipole Moment    :      0.104483934      -0.017007615      -0.472910663
                        -----------------------------------------
Magnitude (a.u.)       :      0.484613915
Magnitude (Debye)      :      1.231790681

VIBRATIONAL FREQUENCIES
-----------------------

Scaling factor for frequencies =  1.000000000  (already applied!)

     0:       0.00 cm**-1
     1:       0.00 cm**-1
     2:       0.00 cm**-1
     3:       0.00 cm**-1
     4:       0.00 cm**-1
     5:       0.00 cm**-1
     6:      41.21 cm**-1
     7:      64.01 cm**-1
     8:      68.92 cm**-1
     9:     103.40 cm**-1
    10:     113.29 cm**-1
    11:     163.88 cm**-1
    12:     192.03 cm**-1
    13:     209.14 cm**-1
    14:     239.86 cm**-1
    15:     261.62 cm**-1
    16:     277.76 cm**-1
    17:     318.43 cm**-1
    18:     330.14 cm**-1
    19:     365.39 cm**-1
    20:     389.81 cm**-1
    21:     411.14 cm**-1
    22:     435.07 cm**-1
    23:     487.11 cm**-1
    24:     513.54 cm**-1
    25:     531.34 cm**-1
    26:     583.58 cm**-1
    27:     717.31 cm**-1
    28:     733.26 cm**-1
    29:     798.30 cm**-1
    30:     874.99 cm**-1
    31:     901.03 cm**-1
    32:     957.24 cm**-1
    33:     967.42 cm**-1
    34:     971.48 cm**-1
    35:     986.34 cm**-1
    36:    1005.69 cm**-1
    37:    1033.69 cm**-1
    38:    1041.28 cm**-1
    39:    1059.66 cm**-1
    40:    1066.00 cm**-1
    41:    1092.83 cm**-1
    42:    1128.51 cm**-1
    43:    1131.59 cm**-1
    44:    1167.64 cm**-1
    45:    1200.34 cm**-1
    46:    1219.24 cm**-1
    47:    1270.07 cm**-1
    48:    1297.71 cm**-1
    49:    1304.29 cm**-1
    50:    1349.82 cm**-1
    51:    1368.11 cm**-1
    52:    1399.86 cm**-1
    53:    1421.86 cm**-1
    54:    1435.44 cm**-1
    55:    1448.74 cm**-1
    56:    1451.20 cm**-1
    57:    1461.49 cm**-1
    58:    1477.59 cm**-1
    59:    1498.72 cm**-1
    60:    1503.84 cm**-1
    61:    1511.79 cm**-1
    62:    1519.39 cm**-1
    63:    1522.00 cm**-1
    64:    1524.11 cm**-1
    65:    1527.75 cm**-1
    66:    1535.65 cm**-1
    67:    1765.70 cm**-1
    68:    1804.51 cm**-1
    69:    3093.58 cm**-1
    70:    3095.54 cm**-1
    71:    3102.19 cm**-1
    72:    3107.10 cm**-1
    73:    3115.17 cm**-1
    74:    3156.74 cm**-1
    75:    3169.55 cm**-1
    76:    3173.08 cm**-1
    77:    3179.18 cm**-1
    78:    3194.18 cm**-1
    79:    3205.51 cm**-1
    80:    3209.56 cm**-1
    81:    3211.21 cm**-1
    82:    3218.45 cm**-1
    83:    3225.17 cm**-1
    84:    3240.70 cm**-1
    85:    3308.56 cm**-1
    86:    3932.09 cm**-1

IR SPECTRUM
-----------

 Mode   freq       eps      Int      T**2         TX        TY        TZ
       cm**-1   L/(mol*cm) km/mol    a.u.
----------------------------------------------------------------------------
  6:     41.21   0.000091    0.46  0.000692  ( 0.010876 -0.023629 -0.003934)
  7:     64.01   0.000258    1.30  0.001259  ( 0.030248 -0.012993 -0.013235)
  8:     68.92   0.000347    1.75  0.001571  (-0.032945  0.020732  0.007477)
  9:    103.40   0.000656    3.32  0.001981  ( 0.039218 -0.016538 -0.013015)
 10:    113.29   0.000186    0.94  0.000513  (-0.013235  0.015847  0.009328)
 11:    163.88   0.001017    5.14  0.001936  (-0.034317  0.023918  0.013644)
 12:    192.03   0.000146    0.74  0.000238  (-0.008888  0.012117 -0.003424)
 13:    209.14   0.000024    0.12  0.000036  (-0.000119  0.002117  0.005629)
 14:    239.86   0.008383   42.36  0.010906  ( 0.082096 -0.053171 -0.036601)
 15:    261.62   0.024868  125.67  0.029663  ( 0.138190 -0.081723 -0.062352)
 16:    277.76   0.005980   30.22  0.006718  (-0.067885  0.039287  0.023804)
 17:    318.43   0.000937    4.73  0.000918  ( 0.026300 -0.013170 -0.007262)
 18:    330.14   0.000859    4.34  0.000812  (-0.026200  0.001809  0.011054)
 19:    365.39   0.000311    1.57  0.000266  (-0.000958  0.014375  0.007618)
 20:    389.81   0.000201    1.02  0.000161  (-0.011105 -0.003822  0.004790)
 21:    411.14   0.000598    3.02  0.000454  (-0.020178 -0.005671  0.003829)
 22:    435.07   0.000777    3.93  0.000558  ( 0.018610 -0.012279 -0.007778)
 23:    487.11   0.000386    1.95  0.000247  (-0.012541  0.001336 -0.009385)
 24:    513.54   0.001587    8.02  0.000964  (-0.030094  0.007419 -0.001909)
 25:    531.34   0.000409    2.07  0.000240  (-0.012694 -0.005839  0.006703)
 26:    583.58   0.000257    1.30  0.000137  (-0.009396 -0.006803 -0.001657)
 27:    717.31   0.002115   10.69  0.000920  ( 0.009430  0.028494 -0.004413)
 28:    733.26   0.000571    2.89  0.000243  ( 0.013438  0.007889 -0.000459)
 29:    798.30   0.000847    4.28  0.000331  ( 0.005390  0.010501  0.013852)
 30:    874.99   0.003468   17.52  0.001237  ( 0.027028 -0.009035 -0.020607)
 31:    901.03   0.000092    0.46  0.000032  ( 0.000219  0.004286  0.003646)
 32:    957.24   0.002345   11.85  0.000764  ( 0.024143  0.005553  0.012272)
 33:    967.42   0.004930   24.91  0.001590  ( 0.011329  0.036744 -0.010571)
 34:    971.48   0.006265   31.66  0.002012  (-0.034969 -0.026964 -0.007908)
 35:    986.34   0.000149    0.75  0.000047  (-0.004550 -0.005093 -0.000686)
 36:   1005.69   0.001124    5.68  0.000349  (-0.010041 -0.015497 -0.002806)
 37:   1033.69   0.000764    3.86  0.000231  ( 0.011836 -0.003856 -0.008699)
 38:   1041.28   0.001293    6.53  0.000387  (-0.002498 -0.018513 -0.006208)
 39:   1059.66   0.002301   11.63  0.000678  ( 0.015457  0.020911 -0.001152)
 40:   1066.00   0.002045   10.34  0.000599  (-0.023165 -0.005254 -0.005869)
 41:   1092.83   0.002901   14.66  0.000828  ( 0.024483  0.010674  0.010723)
 42:   1128.51   0.003208   16.21  0.000887  ( 0.023034  0.013615  0.013084)
 43:   1131.59   0.004559   23.04  0.001257  (-0.022431 -0.020906 -0.017807)
 44:   1167.64   0.000688    3.48  0.000184  ( 0.001179 -0.012153 -0.005904)
 45:   1200.34   0.007885   39.85  0.002050  ( 0.038320  0.013389  0.020058)
 46:   1219.24   0.000934    4.72  0.000239  (-0.006374 -0.012897 -0.005677)
 47:   1270.07   0.003352   16.94  0.000824  ( 0.026648 -0.009162  0.005429)
 48:   1297.71   0.002692   13.60  0.000647  ( 0.025142  0.003728  0.001169)
 49:   1304.29   0.003067   15.50  0.000734  (-0.013427 -0.013727 -0.019106)
 50:   1349.82   0.000174    0.88  0.000040  ( 0.006295  0.000743  0.000357)
 51:   1368.11   0.000525    2.65  0.000120  ( 0.002192  0.000271 -0.010713)
 52:   1399.86   0.002293   11.59  0.000511  (-0.017174 -0.007752 -0.012493)
 53:   1421.86   0.000604    3.05  0.000133  ( 0.004161 -0.003550 -0.010137)
 54:   1435.44   0.001864    9.42  0.000405  (-0.004894  0.013775  0.013842)
 55:   1448.74   0.002134   10.78  0.000460  ( 0.005255  0.009679 -0.018395)
 56:   1451.20   0.003661   18.50  0.000787  (-0.007789 -0.021868  0.015762)
 57:   1461.49   0.003091   15.62  0.000660  ( 0.008930 -0.015305  0.018604)
 58:   1477.59   0.003876   19.59  0.000819  (-0.020088  0.003418 -0.020083)
 59:   1498.72   0.000046    0.23  0.000010  ( 0.002860  0.001104 -0.000376)
 60:   1503.84   0.000421    2.13  0.000087  ( 0.009221 -0.001005 -0.001140)
 61:   1511.79   0.000422    2.13  0.000087  (-0.001003 -0.007659  0.005237)
 62:   1519.39   0.005588   28.24  0.001148  ( 0.019103 -0.022358 -0.016818)
 63:   1522.00   0.001295    6.55  0.000266  (-0.002787 -0.011681  0.011018)
 64:   1524.11   0.000213    1.08  0.000044  (-0.004600  0.002040  0.004271)
 65:   1527.75   0.002355   11.90  0.000481  (-0.016250 -0.002555 -0.014503)
 66:   1535.65   0.000724    3.66  0.000147  (-0.004802  0.009379 -0.006005)
 67:   1765.70   0.002333   11.79  0.000412  ( 0.015368 -0.008890  0.009860)
 68:   1804.51   0.001001    5.06  0.000173  ( 0.010994  0.001277  0.007118)
 69:   3093.58   0.006426   32.47  0.000648  ( 0.018970  0.016977  0.000372)
 70:   3095.54   0.003878   19.60  0.000391  ( 0.009308 -0.015369  0.008253)
 71:   3102.19   0.008460   42.75  0.000851  (-0.020342  0.001610 -0.020848)
 72:   3107.10   0.003741   18.91  0.000376  ( 0.004440 -0.009650 -0.016215)
 73:   3115.17   0.003324   16.80  0.000333  ( 0.002602  0.017397 -0.004854)
 74:   3156.74   0.004529   22.89  0.000448  (-0.012391 -0.016769 -0.003602)
 75:   3169.55   0.001195    6.04  0.000118  (-0.006780  0.005954  0.006023)
 76:   3173.08   0.002901   14.66  0.000285  (-0.010082  0.009666  0.009496)
 77:   3179.18   0.000919    4.64  0.000090  (-0.001933 -0.004507  0.008135)
 78:   3194.18   0.003288   16.62  0.000321  (-0.002693 -0.012560  0.012499)
 79:   3205.51   0.003604   18.21  0.000351  (-0.004537  0.008726 -0.015942)
 80:   3209.56   0.001363    6.89  0.000132  (-0.007602  0.006131 -0.006090)
 81:   3211.21   0.002712   13.71  0.000264  ( 0.007518 -0.007103 -0.012514)
 82:   3218.45   0.003193   16.14  0.000310  (-0.014824  0.002542 -0.009131)
 83:   3225.17   0.000932    4.71  0.000090  (-0.007278  0.003451  0.005033)
 84:   3240.70   0.002375   12.00  0.000229  (-0.008248 -0.012306  0.003042)
 85:   3308.56   0.000887    4.48  0.000084  (-0.006335  0.003944  0.005288)
 86:   3932.09   0.013723   69.35  0.001089  (-0.027810 -0.014987  0.009545)

--------------------------
THERMOCHEMISTRY AT 298.15K
--------------------------

Temperature         ...   298.15 K
Pressure            ...     1.00 atm
Total Mass          ...   154.25 AMU
Quasi RRHO          ...     True
Cut-Off Frequency   ...     1.00 cm^-1

Throughout the following assumptions are being made:
  (1) The electronic state is orbitally nondegenerate
  (2) There are no thermally accessible electronically excited states
  (3) Hindered rotations indicated by low frequency modes are not
      treated as such but are treated as vibrations and this may
      cause some error
  (4) All equations used are the standard statistical mechanics
      equations for an ideal gas
  (5) All vibrations are strictly harmonic

freq.      41.21  E(vib)   ...       0.54
freq.      64.01  E(vib)   ...       0.51
freq.      68.92  E(vib)   ...       0.50
freq.     103.40  E(vib)   ...       0.46
freq.     113.29  E(vib)   ...       0.45
freq.     163.88  E(vib)   ...       0.39
freq.     192.03  E(vib)   ...       0.36
freq.     209.14  E(vib)   ...       0.34
freq.     239.86  E(vib)   ...       0.31
freq.     261.62  E(vib)   ...       0.30
freq.     277.76  E(vib)   ...       0.28
freq.     318.43  E(vib)   ...       0.25
freq.     330.14  E(vib)   ...       0.24
freq.     365.39  E(vib)   ...       0.22
freq.     389.81  E(vib)   ...       0.20
freq.     411.14  E(vib)   ...       0.19
freq.     435.07  E(vib)   ...       0.17
freq.     487.11  E(vib)   ...       0.15
freq.     513.54  E(vib)   ...       0.13
freq.     531.34  E(vib)   ...       0.13
freq.     583.58  E(vib)   ...       0.11
freq.     717.31  E(vib)   ...       0.07
freq.     733.26  E(vib)   ...       0.06
freq.     798.30  E(vib)   ...       0.05
freq.     874.99  E(vib)   ...       0.04
freq.     901.03  E(vib)   ...       0.03
freq.     957.24  E(vib)   ...       0.03
freq.     967.42  E(vib)   ...       0.03
freq.     971.48  E(vib)   ...       0.03
freq.     986.34  E(vib)   ...       0.02
freq.    1005.69  E(vib)   ...       0.02
freq.    1033.69  E(vib)   ...       0.02
freq.    1041.28  E(vib)   ...       0.02
freq.    1059.66  E(vib)   ...       0.02
freq.    1066.00  E(vib)   ...       0.02
freq.    1092.83  E(vib)   ...       0.02
freq.    1128.51  E(vib)   ...       0.01
freq.    1131.59  E(vib)   ...       0.01
freq.    1167.64  E(vib)   ...       0.01
freq.    1200.34  E(vib)   ...       0.01
freq.    1219.24  E(vib)   ...       0.01
freq.    1270.07  E(vib)   ...       0.01
freq.    1297.71  E(vib)   ...       0.01
freq.    1304.29  E(vib)   ...       0.01
freq.    1349.82  E(vib)   ...       0.01
freq.    1368.11  E(vib)   ...       0.01
freq.    1399.86  E(vib)   ...       0.00
freq.    1421.86  E(vib)   ...       0.00
freq.    1435.44  E(vib)   ...       0.00
freq.    1448.74  E(vib)   ...       0.00
freq.    1451.20  E(vib)   ...       0.00
freq.    1461.49  E(vib)   ...       0.00
freq.    1477.59  E(vib)   ...       0.00
freq.    1498.72  E(vib)   ...       0.00
freq.    1503.84  E(vib)   ...       0.00
freq.    1511.79  E(vib)   ...       0.00
freq.    1519.39  E(vib)   ...       0.00
freq.    1522.00  E(vib)   ...       0.00
freq.    1524.11  E(vib)   ...       0.00
freq.    1527.75  E(vib)   ...       0.00
freq.    1535.65  E(vib)   ...       0.00
freq.    1765.70  E(vib)   ...       0.00
freq.    1804.51  E(vib)   ...       0.00
freq.    3093.58  E(vib)   ...       0.00
freq.    3095.54  E(vib)   ...       0.00
freq.    3102.19  E(vib)   ...       0.00
freq.    3107.10  E(vib)   ...       0.00
freq.    3115.17  E(vib)   ...       0.00
freq.    3156.74  E(vib)   ...       0.00
freq.    3169.55  E(vib)   ...       0.00
freq.    3173.08  E(vib)   ...       0.00
freq.    3179.18  E(vib)   ...       0.00
freq.    3194.18  E(vib)   ...       0.00
freq.    3205.51  E(vib)   ...       0.00
freq.    3209.56  E(vib)   ...       0.00
freq.    3211.21  E(vib)   ...       0.00
freq.    3218.45  E(vib)   ...       0.00
freq.    3225.17  E(vib)   ...       0.00
freq.    3240.70  E(vib)   ...       0.00
freq.    3308.56  E(vib)   ...       0.00
freq.    3932.09  E(vib)   ...       0.00

------------
INNER ENERGY
------------

The inner energy is: U= E(el) + E(ZPE) + E(vib) + E(rot) + E(trans)
    E(el)   - is the total energy from the electronic structure calculation
              = E(kin-el) + E(nuc-el) + E(el-el) + E(nuc-nuc)
    E(ZPE)  - the the zero temperature vibrational energy from the frequency calculation
    E(vib)  - the the finite temperature correction to E(ZPE) due to population
              of excited vibrational states
    E(rot)  - is the rotational thermal energy
    E(trans)- is the translational thermal energy

Summary of contributions to the inner energy U:
Electronic energy                ...    -83.86228269 Eh
Zero point energy                ...      0.26538773 Eh     166.53 kcal/mol
Thermal vibrational correction   ...      0.01087050 Eh       6.82 kcal/mol
Thermal rotational correction    ...      0.00141627 Eh       0.89 kcal/mol
Thermal translational correction ...      0.00141627 Eh       0.89 kcal/mol
-----------------------------------------------------------------------
Total thermal energy                    -83.58319192 Eh

Summary of corrections to the electronic energy:
(perhaps to be used in another calculation)
Total thermal correction                  0.01370304 Eh       8.60 kcal/mol
Non-thermal (ZPE) correction              0.26538773 Eh     166.53 kcal/mol
-----------------------------------------------------------------------
Total correction                          0.27909078 Eh     175.13 kcal/mol

--------
ENTHALPY
--------

The enthalpy is H = U + kB*T
                kB is Boltzmann's constant
Total thermal energy              ...    -83.58319192 Eh
Thermal Enthalpy correction       ...      0.00094421 Eh       0.59 kcal/mol
-----------------------------------------------------------------------
Total Enthalpy                    ...    -83.58224771 Eh

Note: Only C1 symmetry has been detected, increase convergence thresholds
      if your molecule has a higher symmetry. Symmetry factor of 1.0 is
      used for the rotational entropy correction.

Note: Rotational entropy computed according to Herzberg
Infrared and Raman Spectra, Chapter V,1, Van Nostrand Reinhold, 1945
Point Group:  C1, Symmetry Number:   1
Rotational constants in cm-1:     0.064968     0.018985     0.018172

Vibrational entropy computed according to the QRRHO of S. Grimme
Chem.Eur.J. 2012 18 9955 using a reference frequency of 100.0 cm-1

-------
ENTROPY
-------

                             ****ORCA TERMINATED NORMALLY****
TOTAL RUN TIME: 0 days 0 hours 31 minutes 44 seconds 104 msec
