                         Program Version 6.0.1  -  RELEASE   -
|  1> ! wB97X-3c OPT FREQ TightSCF
|  2> %pal
|  3>   nprocs 40
|  4> end
|  5> * xyz 0 1
|  6> C     -0.590348    -2.706368     1.408793
|  7> C     -0.504832    -1.214970     1.614540
|  8> C      0.534148    -0.487721     1.146573
|  9> C      1.609120    -1.030847     0.220370
| 10> C      2.221307     0.073607    -0.702173
| 11> C      1.119372     0.965037    -1.272518
| 12> C      0.061215     0.462741    -1.933955
| 13> C     -1.231048     1.229749    -2.014921
| 14> C     -1.930050     1.161455    -0.669796
| 15> C     -2.375979    -0.038220    -0.229491
| 16> C     -2.853276    -0.328534     1.178640
| 17> C     -1.701691    -0.485611     2.198656
| 18> C     -2.042370     2.407626     0.173241
| 19> C      3.202848     0.942422     0.114352
| 20> C      3.005733    -0.584430    -1.855700
| 21> H     -1.462970    -3.128433     1.950216
| 22> H      0.328040    -3.196482     1.795190
| 23> H     -0.713913    -2.937474     0.330314
| 24> H      0.525392     0.583354     1.327164
| 25> H      1.166507    -1.815703    -0.428434
| 26> H      2.399471    -1.522290     0.827925
| 27> H      1.089821     2.010313    -0.971793
| 28> H      0.042221    -0.586457    -2.212614
| 29> H     -1.881899     0.778340    -2.794425
| 30> H     -1.027392     2.278348    -2.321342
| 31> H     -2.300527    -0.895877    -0.893820
| 32> H     -3.420396    -1.284112     1.151152
| 33> H     -3.563263     0.453752     1.520987
| 34> H     -1.406154     0.513774     2.582710
| 35> H     -2.076549    -1.047158     3.081345
| 36> H     -3.105585     2.596965     0.429868
| 37> H     -1.448711     2.299052     1.102191
| 38> H     -1.658451     3.296626    -0.368674
| 39> H      3.661018     1.724197    -0.529843
| 40> H      4.020389     0.319794     0.537840
| 41> H      2.685922     1.451662     0.954881
| 42> H      3.443114     0.190028    -2.522559
| 43> H      2.347992    -1.236437    -2.468701
| 44> H      3.831772    -1.211720    -1.456187
| 45> *
| 46>
| 47>                          ****END OF INPUT****
 Total Charge           Charge          ....    0
 Multiplicity           Mult            ....    1
 Number of Electrons    NEL             ....   84
Dispersion correction           -0.052645561
FINAL SINGLE POINT ENERGY       -99.873162223150
Dispersion correction             ... done (  0.1 sec)
Dispersion correction           -0.053456475
FINAL SINGLE POINT ENERGY       -99.884125207767
Dispersion correction             ... done (  0.1 sec)
Dispersion correction           -0.053633816
FINAL SINGLE POINT ENERGY       -99.886026688701
Dispersion correction             ... done (  0.1 sec)
FINAL SINGLE POINT ENERGY       -99.887374789614
FINAL SINGLE POINT ENERGY       -99.888425383206
FINAL SINGLE POINT ENERGY       -99.889818762707
FINAL SINGLE POINT ENERGY       -99.890799652037
FINAL SINGLE POINT ENERGY       -99.891572498654
FINAL SINGLE POINT ENERGY       -99.892065874342
FINAL SINGLE POINT ENERGY       -99.892273789280
FINAL SINGLE POINT ENERGY       -99.892355117552
FINAL SINGLE POINT ENERGY       -99.892421959992
FINAL SINGLE POINT ENERGY       -99.892481768972
FINAL SINGLE POINT ENERGY       -99.892554792673
FINAL SINGLE POINT ENERGY       -99.892599721450
Dispersion correction             ... done (  0.1 sec)
Dispersion correction           -0.054010185
FINAL SINGLE POINT ENERGY       -99.892614983142
Dispersion correction             ... done (  0.0 sec)
Dispersion correction           -0.054019267
FINAL SINGLE POINT ENERGY       -99.892618592187
Dispersion correction             ... done (  0.0 sec)
                    ***********************HURRAY********************

CARTESIAN COORDINATES (ANGSTROEM)
---------------------------------
  C     -0.821139   -2.615990    1.078235
  C     -0.555001   -1.189303    1.445038
  C      0.560355   -0.533976    1.138051
  C      1.701904   -0.999501    0.285035
  C      2.254656    0.098113   -0.655648
  C      1.128206    0.859421   -1.325570
  C     -0.020268    0.320163   -1.699371
  C     -1.287782    1.065845   -1.995142
  C     -2.004774    1.095443   -0.660592
  C     -2.576584   -0.012336   -0.203136
  C     -2.936961   -0.313812    1.222328
  C     -1.689723   -0.469453    2.122232
  C     -1.788018    2.325362    0.156526
  C      3.088915    1.088761    0.152939
  C      3.151491   -0.558671   -1.701578
  H     -1.166633   -3.170207    1.952580
  H      0.059339   -3.123766    0.695719
  H     -1.609761   -2.692639    0.327311
  H      0.624872    0.495783    1.473249
  H      1.394957   -1.855503   -0.315236
  H      2.533125   -1.350484    0.903841
  H      1.257733    1.934988   -1.417243
  H     -0.156903   -0.749662   -1.583691
  H     -1.883012    0.551071   -2.748800
  H     -1.082009    2.073568   -2.356114
  H     -2.643022   -0.848893   -0.892614
  H     -3.523257   -1.232368    1.251483
  H     -3.576561    0.460092    1.649361
  H     -1.342505    0.518050    2.423813
  H     -1.986261   -0.991636    3.035915
  H     -2.292702    2.283588    1.117858
  H     -0.721250    2.476359    0.335708
  H     -2.149424    3.205085   -0.378151
  H      3.497728    1.865470   -0.494063
  H      3.923951    0.584003    0.639275
  H      2.498890    1.580314    0.925829
  H      3.589336    0.188817   -2.363186
  H      2.582233   -1.254594   -2.316697
  H      3.965860   -1.107504   -1.225490

 Multiplicity           Mult            ....    1
 Number of Electrons    NEL             ....   84
 Basis Dimension        Dim             ....  315

ORBITAL ENERGIES
----------------

  NO   OCC          E(Eh)            E(eV)
   0   2.0000      -0.987845       -26.8806
   1   2.0000      -0.965361       -26.2688
   2   2.0000      -0.952220       -25.9112
   3   2.0000      -0.899906       -24.4877
   4   2.0000      -0.877611       -23.8810
   5   2.0000      -0.845145       -22.9976
   6   2.0000      -0.825591       -22.4655
   7   2.0000      -0.820446       -22.3255
   8   2.0000      -0.811827       -22.0909
   9   2.0000      -0.778065       -21.1722
  10   2.0000      -0.734570       -19.9887
  11   2.0000      -0.698933       -19.0189
  12   2.0000      -0.654317       -17.8049
  13   2.0000      -0.638561       -17.3761
  14   2.0000      -0.625269       -17.0144
  15   2.0000      -0.600395       -16.3376
  16   2.0000      -0.595448       -16.2030
  17   2.0000      -0.571881       -15.5617
  18   2.0000      -0.565437       -15.3863
  19   2.0000      -0.561800       -15.2873
  20   2.0000      -0.542653       -14.7663
  21   2.0000      -0.532560       -14.4917
  22   2.0000      -0.529224       -14.4009
  23   2.0000      -0.520724       -14.1696
  24   2.0000      -0.509594       -13.8668
  25   2.0000      -0.502889       -13.6843
  26   2.0000      -0.500914       -13.6306
  27   2.0000      -0.496074       -13.4989
  28   2.0000      -0.485080       -13.1997
  29   2.0000      -0.480457       -13.0739
  30   2.0000      -0.475213       -12.9312
  31   2.0000      -0.467297       -12.7158
  32   2.0000      -0.454488       -12.3673
  33   2.0000      -0.451740       -12.2925
  34   2.0000      -0.440083       -11.9753
  35   2.0000      -0.430257       -11.7079
  36   2.0000      -0.423711       -11.5298
  37   2.0000      -0.414816       -11.2877
  38   2.0000      -0.412167       -11.2156
  39   2.0000      -0.350681        -9.5425
  40   2.0000      -0.322699        -8.7811
  41   2.0000      -0.319423        -8.6919
  42   0.0000       0.074630         2.0308
  43   0.0000       0.088931         2.4199
  44   0.0000       0.092711         2.5228
  45   0.0000       0.094345         2.5673
  46   0.0000       0.100452         2.7334

MULLIKEN ATOMIC CHARGES
-----------------------
   0 C :   -0.045012
   1 C :   -0.074167
   2 C :    0.028594
   3 C :   -0.019736
   4 C :   -0.235988
   5 C :    0.039445
   6 C :   -0.030529
   7 C :   -0.018300
   8 C :   -0.072278
   9 C :   -0.021774
  10 C :   -0.072787
  11 C :   -0.030831
  12 C :   -0.037980
  13 C :   -0.006411
  14 C :   -0.000930
  15 H :    0.036950
  16 H :    0.033545
  17 H :    0.024643
  18 H :   -0.029354
  19 H :    0.012854
  20 H :    0.046524
  21 H :    0.005488
  22 H :    0.008312
  23 H :    0.045118
  24 H :    0.026059
  25 H :    0.006339
  26 H :    0.033065
  27 H :    0.042783
  28 H :    0.020574
  29 H :    0.033795
  30 H :    0.022462
  31 H :    0.026000
  32 H :    0.042993
  33 H :    0.028299
  34 H :    0.026616
  35 H :    0.025151
  36 H :    0.028632
  37 H :    0.029946
  38 H :    0.021890
Sum of atomic charges:   -0.0000000

LOEWDIN ATOMIC CHARGES
----------------------
   0 C :   -0.106623
   1 C :   -0.048876
   2 C :   -0.039165
   3 C :   -0.076214
   4 C :   -0.081083
   5 C :   -0.039108
   6 C :   -0.028030
   7 C :   -0.078755
   8 C :   -0.034702
   9 C :   -0.052014
  10 C :   -0.088031
  11 C :   -0.073713
  12 C :   -0.104685
  13 C :   -0.104212
  14 C :   -0.102055
  15 H :    0.051357
  16 H :    0.045647
  17 H :    0.043297
  18 H :    0.031718
  19 H :    0.039717
  20 H :    0.048987
  21 H :    0.033030
  22 H :    0.040679
  23 H :    0.052160
  24 H :    0.049905
  25 H :    0.032917
  26 H :    0.044924
  27 H :    0.046746
  28 H :    0.045467
  29 H :    0.044951
  30 H :    0.046868
  31 H :    0.046000
  32 H :    0.050686
  33 H :    0.044253
  34 H :    0.044473
  35 H :    0.040909
  36 H :    0.045414
  37 H :    0.044356
  38 H :    0.042801

  Mayer bond orders larger than 0.100000
B(  0-C ,  1-C ) :   1.0260 B(  0-C , 15-H ) :   0.9810 B(  0-C , 16-H ) :   0.9878
B(  0-C , 17-H ) :   0.9756 B(  1-C ,  2-C ) :   1.9087 B(  1-C , 11-C ) :   1.0286
B(  2-C ,  3-C ) :   1.0213 B(  2-C , 18-H ) :   0.9929 B(  3-C ,  4-C ) :   0.9822
B(  3-C , 19-H ) :   0.9901 B(  3-C , 20-H ) :   0.9782 B(  4-C ,  5-C ) :   1.0320
B(  4-C , 13-C ) :   1.0043 B(  4-C , 14-C ) :   1.0086 B(  5-C ,  6-C ) :   1.8866
B(  5-C , 21-H ) :   0.9908 B(  6-C ,  7-C ) :   1.0107 B(  6-C , 22-H ) :   0.9974
B(  7-C ,  8-C ) :   0.9950 B(  7-C , 23-H ) :   0.9880 B(  7-C , 24-H ) :   0.9932
B(  8-C ,  9-C ) :   1.8912 B(  8-C , 12-C ) :   1.0364 B(  9-C , 10-C ) :   1.0200
B(  9-C , 25-H ) :   0.9904 B( 10-C , 11-C ) :   0.9565 B( 10-C , 26-H ) :   0.9968
B( 10-C , 27-H ) :   0.9930 B( 11-C , 28-H ) :   0.9985 B( 11-C , 29-H ) :   0.9892
B( 12-C , 30-H ) :   0.9914 B( 12-C , 31-H ) :   0.9732 B( 12-C , 32-H ) :   0.9796
B( 13-C , 33-H ) :   0.9916 B( 13-C , 34-H ) :   0.9909 B( 13-C , 35-H ) :   0.9931
B( 14-C , 36-H ) :   0.9905 B( 14-C , 37-H ) :   0.9907 B( 14-C , 38-H ) :   0.9880

Dispersion correction           -0.054019454
FINAL SINGLE POINT ENERGY       -99.892619323030

DIPOLE MOMENT
-------------

Method             : SCF
Type of density    : Electron Density
Multiplicity       :   1
Irrep              :   0
Energy             :   -99.8385998695097783 Eh
Relativity type    :
Basis              : AO
                                X                 Y                 Z
Electronic contribution:     -5.161022780       0.458499719      -1.752465825
Nuclear contribution   :      5.164398821      -0.460602603       1.843512984
                        -----------------------------------------
Total Dipole Moment    :      0.003376041      -0.002102884       0.091047159
                        -----------------------------------------
Magnitude (a.u.)       :      0.091133994
Magnitude (Debye)      :      0.231644204

VIBRATIONAL FREQUENCIES
-----------------------

Scaling factor for frequencies =  1.000000000  (already applied!)

     0:       0.00 cm**-1
     1:       0.00 cm**-1
     2:       0.00 cm**-1
     3:       0.00 cm**-1
     4:       0.00 cm**-1
     5:       0.00 cm**-1
     6:      62.87 cm**-1
     7:      75.69 cm**-1
     8:     104.28 cm**-1
     9:     107.91 cm**-1
    10:     134.05 cm**-1
    11:     152.97 cm**-1
    12:     186.28 cm**-1
    13:     198.32 cm**-1
    14:     213.20 cm**-1
    15:     244.75 cm**-1
    16:     251.21 cm**-1
    17:     267.27 cm**-1
    18:     274.95 cm**-1
    19:     294.84 cm**-1
    20:     307.54 cm**-1
    21:     330.12 cm**-1
    22:     368.81 cm**-1
    23:     378.18 cm**-1
    24:     388.58 cm**-1
    25:     415.82 cm**-1
    26:     430.82 cm**-1
    27:     447.50 cm**-1
    28:     502.07 cm**-1
    29:     520.10 cm**-1
    30:     536.73 cm**-1
    31:     555.92 cm**-1
    32:     595.20 cm**-1
    33:     642.99 cm**-1
    34:     772.63 cm**-1
    35:     795.97 cm**-1
    36:     828.59 cm**-1
    37:     859.08 cm**-1
    38:     866.37 cm**-1
    39:     895.77 cm**-1
    40:     907.33 cm**-1
    41:     931.18 cm**-1
    42:     955.67 cm**-1
    43:     969.85 cm**-1
    44:     974.06 cm**-1
    45:     993.21 cm**-1
    46:    1004.86 cm**-1
    47:    1008.81 cm**-1
    48:    1027.60 cm**-1
    49:    1039.57 cm**-1
    50:    1047.20 cm**-1
    51:    1069.70 cm**-1
    52:    1077.05 cm**-1
    53:    1080.20 cm**-1
    54:    1089.20 cm**-1
    55:    1124.92 cm**-1
    56:    1150.32 cm**-1
    57:    1185.75 cm**-1
    58:    1197.78 cm**-1
    59:    1213.50 cm**-1
    60:    1235.67 cm**-1
    61:    1253.23 cm**-1
    62:    1263.21 cm**-1
    63:    1275.46 cm**-1
    64:    1291.18 cm**-1
    65:    1323.50 cm**-1
    66:    1330.47 cm**-1
    67:    1358.30 cm**-1
    68:    1373.91 cm**-1
    69:    1379.74 cm**-1
    70:    1382.66 cm**-1
    71:    1393.58 cm**-1
    72:    1416.13 cm**-1
    73:    1430.45 cm**-1
    74:    1431.96 cm**-1
    75:    1451.21 cm**-1
    76:    1458.60 cm**-1
    77:    1464.46 cm**-1
    78:    1502.69 cm**-1
    79:    1507.20 cm**-1
    80:    1512.50 cm**-1
    81:    1513.77 cm**-1
    82:    1516.00 cm**-1
    83:    1518.38 cm**-1
    84:    1521.80 cm**-1
    85:    1524.30 cm**-1
    86:    1527.24 cm**-1
    87:    1532.32 cm**-1
    88:    1536.12 cm**-1
    89:    1540.00 cm**-1
    90:    1787.79 cm**-1
    91:    1798.54 cm**-1
    92:    1799.81 cm**-1
    93:    3086.64 cm**-1
    94:    3090.34 cm**-1
    95:    3092.37 cm**-1
    96:    3093.06 cm**-1
    97:    3096.35 cm**-1
    98:    3097.22 cm**-1
    99:    3113.76 cm**-1
   100:    3118.20 cm**-1
   101:    3153.78 cm**-1
   102:    3154.19 cm**-1
   103:    3165.59 cm**-1
   104:    3166.22 cm**-1
   105:    3170.45 cm**-1
   106:    3179.30 cm**-1
   107:    3179.67 cm**-1
   108:    3184.23 cm**-1
   109:    3189.15 cm**-1
   110:    3190.23 cm**-1
   111:    3192.57 cm**-1
   112:    3196.42 cm**-1
   113:    3210.87 cm**-1
   114:    3216.09 cm**-1
   115:    3219.55 cm**-1
   116:    3220.18 cm**-1

IR SPECTRUM
-----------

 Mode   freq       eps      Int      T**2         TX        TY        TZ
       cm**-1   L/(mol*cm) km/mol    a.u.
----------------------------------------------------------------------------
  6:     62.87   0.000015    0.07  0.000072  (-0.006714  0.002344 -0.004680)
  7:     75.69   0.000021    0.10  0.000085  ( 0.001360 -0.001036  0.009039)
  8:    104.28   0.000065    0.33  0.000194  ( 0.001790  0.011689 -0.007344)
  9:    107.91   0.000006    0.03  0.000016  (-0.002871 -0.001390 -0.002403)
 10:    134.05   0.000073    0.37  0.000170  (-0.000956 -0.001647 -0.012917)
 11:    152.97   0.000012    0.06  0.000025  (-0.004254  0.001221 -0.002242)
 12:    186.28   0.000007    0.04  0.000012  ( 0.003279 -0.001191  0.000294)
 13:    198.32   0.000262    1.32  0.000412  (-0.019461  0.005575 -0.001311)
 14:    213.20   0.000047    0.24  0.000069  (-0.001009 -0.005204  0.006390)
 15:    244.75   0.000003    0.01  0.000004  (-0.000974 -0.000473 -0.001571)
 16:    251.21   0.000035    0.18  0.000044  (-0.003722 -0.002665  0.004786)
 17:    267.27   0.000071    0.36  0.000082  (-0.006005  0.003162 -0.006034)
 18:    274.95   0.000038    0.19  0.000043  (-0.004120  0.004989  0.000918)
 19:    294.84   0.000017    0.09  0.000018  (-0.001649  0.001132  0.003803)
 20:    307.54   0.000031    0.15  0.000031  (-0.001223 -0.004037  0.003628)
 21:    330.12   0.000024    0.12  0.000023  (-0.003657  0.000351 -0.003052)
 22:    368.81   0.000137    0.69  0.000116  (-0.001851  0.003896 -0.009869)
 23:    378.18   0.000068    0.35  0.000056  (-0.006599  0.003166  0.001682)
 24:    388.58   0.000152    0.77  0.000122  ( 0.010119  0.000550 -0.004383)
 25:    415.82   0.000090    0.45  0.000067  (-0.003858  0.007059 -0.001580)
 26:    430.82   0.000326    1.65  0.000236  ( 0.015049 -0.000913 -0.002947)
 27:    447.50   0.000300    1.52  0.000209  (-0.007631  0.002783  0.011963)
 28:    502.07   0.000995    5.03  0.000618  (-0.007014  0.010994 -0.021170)
 29:    520.10   0.000712    3.60  0.000427  ( 0.016563 -0.006572  0.010473)
 30:    536.73   0.001578    7.98  0.000918  (-0.011822  0.023970 -0.014258)
 31:    555.92   0.000155    0.78  0.000087  ( 0.009243  0.000248 -0.001259)
 32:    595.20   0.000976    4.93  0.000512  (-0.017505  0.004624 -0.013557)
 33:    642.99   0.000905    4.58  0.000439  ( 0.011911  0.001835  0.017153)
 34:    772.63   0.000351    1.77  0.000142  ( 0.004573  0.009307  0.005851)
 35:    795.97   0.000028    0.14  0.000011  ( 0.001736  0.000964 -0.002633)
 36:    828.59   0.000239    1.21  0.000090  ( 0.006160  0.003757  0.006147)
 37:    859.08   0.003400   17.18  0.001235  (-0.030061 -0.002368 -0.018054)
 38:    866.37   0.004623   23.36  0.001665  ( 0.040673  0.003266  0.000561)
 39:    895.77   0.000402    2.03  0.000140  (-0.011762  0.001113 -0.000665)
 40:    907.33   0.000837    4.23  0.000288  ( 0.016691  0.003038 -0.000466)
 41:    931.18   0.000391    1.98  0.000131  ( 0.005546  0.003109  0.009516)
 42:    955.67   0.000885    4.47  0.000289  (-0.008879  0.006525 -0.012947)
 43:    969.85   0.000645    3.26  0.000208  (-0.013429 -0.005011  0.001438)
 44:    974.06   0.000144    0.73  0.000046  ( 0.003445  0.005158  0.002783)
 45:    993.21   0.000141    0.71  0.000044  (-0.004800  0.003950  0.002398)
 46:   1004.86   0.000443    2.24  0.000138  (-0.001418  0.010104 -0.005785)
 47:   1008.81   0.000566    2.86  0.000175  ( 0.006124 -0.003457 -0.011203)
 48:   1027.60   0.007887   39.86  0.002395  ( 0.005067 -0.001785 -0.048645)
 49:   1039.57   0.000557    2.81  0.000167  (-0.009609 -0.006288  0.005941)
 50:   1047.20   0.000125    0.63  0.000037  (-0.003063  0.002813 -0.004460)
 51:   1069.70   0.000489    2.47  0.000143  (-0.004994  0.001043  0.010800)
 52:   1077.05   0.000228    1.15  0.000066  (-0.003802 -0.006943  0.001811)
 53:   1080.20   0.000710    3.59  0.000205  ( 0.005839 -0.003874  0.012493)
 54:   1089.20   0.000664    3.36  0.000190  ( 0.008018  0.003772 -0.010571)
 55:   1124.92   0.001089    5.50  0.000302  (-0.014943 -0.005371  0.007072)
 56:   1150.32   0.000840    4.24  0.000228  ( 0.010113  0.010329 -0.004348)
 57:   1185.75   0.000118    0.60  0.000031  (-0.002184  0.004300  0.002781)
 58:   1197.78   0.000086    0.44  0.000022  (-0.002349  0.000455 -0.004091)
 59:   1213.50   0.000343    1.73  0.000088  ( 0.008422  0.002279 -0.003466)
 60:   1235.67   0.001224    6.19  0.000309  (-0.014694  0.002610  0.009299)
 61:   1253.23   0.000738    3.73  0.000184  ( 0.002958  0.008246 -0.010347)
 62:   1263.21   0.000561    2.84  0.000139  (-0.010609  0.004942  0.001302)
 63:   1275.46   0.000183    0.93  0.000045  ( 0.003446  0.000554 -0.005718)
 64:   1291.18   0.000122    0.62  0.000030  (-0.005283 -0.000552 -0.001166)
 65:   1323.50   0.000569    2.88  0.000134  ( 0.004139  0.005412 -0.009368)
 66:   1330.47   0.001183    5.98  0.000278  ( 0.015440 -0.005435 -0.003104)
 67:   1358.30   0.000072    0.36  0.000017  (-0.001284  0.001095 -0.003702)
 68:   1373.91   0.000058    0.29  0.000013  (-0.000996 -0.002290  0.002645)
 69:   1379.74   0.000407    2.05  0.000092  ( 0.007012  0.003227  0.005691)
 70:   1382.66   0.000544    2.75  0.000123  (-0.009919 -0.004948 -0.000125)
 71:   1393.58   0.000026    0.13  0.000006  (-0.000567  0.001215 -0.002025)
 72:   1416.13   0.000813    4.11  0.000179  ( 0.006181  0.008674  0.008110)
 73:   1430.45   0.003651   18.45  0.000796  (-0.001489 -0.018526 -0.021237)
 74:   1431.96   0.000102    0.51  0.000022  ( 0.003791 -0.000474  0.002746)
 75:   1451.21   0.001838    9.29  0.000395  ( 0.019311  0.004717  0.000378)
 76:   1458.60   0.000523    2.64  0.000112  ( 0.005140 -0.004542 -0.008055)
 77:   1464.46   0.005089   25.72  0.001084  ( 0.007826  0.030997  0.007899)
 78:   1502.69   0.001059    5.35  0.000220  (-0.011565  0.004057 -0.008348)
 79:   1507.20   0.000305    1.54  0.000063  ( 0.000937 -0.000322 -0.007882)
 80:   1512.50   0.001369    6.92  0.000283  ( 0.007882  0.001153 -0.014800)
 81:   1513.77   0.000616    3.11  0.000127  ( 0.009030  0.005974 -0.003114)
 82:   1516.00   0.001305    6.59  0.000269  (-0.006715 -0.002732  0.014698)
 83:   1518.38   0.001898    9.59  0.000390  ( 0.011548 -0.015977 -0.001206)
 84:   1521.80   0.001447    7.31  0.000297  ( 0.003622 -0.016644  0.002574)
 85:   1524.30   0.001241    6.27  0.000254  ( 0.012233  0.008961  0.004915)
 86:   1527.24   0.002349   11.87  0.000480  (-0.014757 -0.002209 -0.016040)
 87:   1532.32   0.001229    6.21  0.000250  ( 0.012482  0.003772 -0.008954)
 88:   1536.12   0.001082    5.47  0.000220  ( 0.009878 -0.004792 -0.009967)
 89:   1540.00   0.003102   15.68  0.000629  (-0.009503  0.019203 -0.013020)
 90:   1787.79   0.001724    8.71  0.000301  (-0.014943 -0.005289  0.007053)
 91:   1798.54   0.001061    5.36  0.000184  ( 0.007824  0.009984  0.004822)
 92:   1799.81   0.000050    0.25  0.000009  (-0.002618 -0.001305 -0.000323)
 93:   3086.64   0.002652   13.40  0.000268  ( 0.010514 -0.010446  0.006959)
 94:   3090.34   0.009213   46.56  0.000930  ( 0.018519 -0.017957 -0.016277)
 95:   3092.37   0.005591   28.26  0.000564  ( 0.001499  0.000511 -0.023701)
 96:   3093.06   0.005921   29.92  0.000597  ( 0.004828  0.022130  0.009183)
 97:   3096.35   0.011138   56.29  0.001123  (-0.030221 -0.014030 -0.003524)
 98:   3097.22   0.004603   23.26  0.000464  ( 0.001042 -0.020362  0.006935)
 99:   3113.76   0.013247   66.95  0.001328  ( 0.028789  0.006497 -0.021369)
100:   3118.20   0.006871   34.72  0.000688  (-0.011103  0.011603 -0.020731)
101:   3153.78   0.002304   11.64  0.000228  ( 0.007831  0.008316  0.009872)
102:   3154.19   0.000261    1.32  0.000026  (-0.004733  0.001809  0.000402)
103:   3165.59   0.002908   14.70  0.000287  (-0.011275  0.010860 -0.006450)
104:   3166.22   0.001990   10.06  0.000196  ( 0.002101 -0.004840  0.012973)
105:   3170.45   0.004068   20.56  0.000400  (-0.006499 -0.018885  0.001218)
106:   3179.30   0.001258    6.36  0.000123  ( 0.004994  0.009894  0.000817)
107:   3179.67   0.001558    7.87  0.000153  ( 0.007798 -0.005098  0.008129)
108:   3184.23   0.004798   24.25  0.000470  (-0.005625  0.010849 -0.017914)
109:   3189.15   0.002945   14.88  0.000288  ( 0.005975  0.010590 -0.011845)
110:   3190.23   0.004135   20.90  0.000404  (-0.013497  0.014909 -0.000089)
111:   3192.57   0.004867   24.60  0.000476  (-0.017494 -0.013014  0.000571)
112:   3196.42   0.004197   21.21  0.000410  ( 0.005206  0.014445  0.013188)
113:   3210.87   0.003811   19.26  0.000370  (-0.001343  0.015998  0.010614)
114:   3216.09   0.002507   12.67  0.000243  (-0.007443  0.001137  0.013658)
115:   3219.55   0.001721    8.70  0.000167  ( 0.006659  0.011067 -0.000196)
116:   3220.18   0.003538   17.88  0.000343  (-0.010702  0.014280  0.004940)

--------------------------
THERMOCHEMISTRY AT 298.15K
--------------------------

Temperature         ...   298.15 K
Pressure            ...     1.00 atm
Total Mass          ...   204.36 AMU
Quasi RRHO          ...     True
Cut-Off Frequency   ...     1.00 cm^-1

Throughout the following assumptions are being made:
  (1) The electronic state is orbitally nondegenerate
  (2) There are no thermally accessible electronically excited states
  (3) Hindered rotations indicated by low frequency modes are not
      treated as such but are treated as vibrations and this may
      cause some error
  (4) All equations used are the standard statistical mechanics
      equations for an ideal gas
  (5) All vibrations are strictly harmonic

freq.      62.87  E(vib)   ...       0.51
freq.      75.69  E(vib)   ...       0.49
freq.     104.28  E(vib)   ...       0.46
freq.     107.91  E(vib)   ...       0.45
freq.     134.05  E(vib)   ...       0.42
freq.     152.97  E(vib)   ...       0.40
freq.     186.28  E(vib)   ...       0.37
freq.     198.32  E(vib)   ...       0.35
freq.     213.20  E(vib)   ...       0.34
freq.     244.75  E(vib)   ...       0.31
freq.     251.21  E(vib)   ...       0.30
freq.     267.27  E(vib)   ...       0.29
freq.     274.95  E(vib)   ...       0.28
freq.     294.84  E(vib)   ...       0.27
freq.     307.54  E(vib)   ...       0.26
freq.     330.12  E(vib)   ...       0.24
freq.     368.81  E(vib)   ...       0.21
freq.     378.18  E(vib)   ...       0.21
freq.     388.58  E(vib)   ...       0.20
freq.     415.82  E(vib)   ...       0.18
freq.     430.82  E(vib)   ...       0.18
freq.     447.50  E(vib)   ...       0.17
freq.     502.07  E(vib)   ...       0.14
freq.     520.10  E(vib)   ...       0.13
freq.     536.73  E(vib)   ...       0.12
freq.     555.92  E(vib)   ...       0.12
freq.     595.20  E(vib)   ...       0.10
freq.     642.99  E(vib)   ...       0.09
freq.     772.63  E(vib)   ...       0.05
freq.     795.97  E(vib)   ...       0.05
freq.     828.59  E(vib)   ...       0.04
freq.     859.08  E(vib)   ...       0.04
freq.     866.37  E(vib)   ...       0.04
freq.     895.77  E(vib)   ...       0.03
freq.     907.33  E(vib)   ...       0.03
freq.     931.18  E(vib)   ...       0.03
freq.     955.67  E(vib)   ...       0.03
freq.     969.85  E(vib)   ...       0.03
freq.     974.06  E(vib)   ...       0.03
freq.     993.21  E(vib)   ...       0.02
freq.    1004.86  E(vib)   ...       0.02
freq.    1008.81  E(vib)   ...       0.02
freq.    1027.60  E(vib)   ...       0.02
freq.    1039.57  E(vib)   ...       0.02
freq.    1047.20  E(vib)   ...       0.02
freq.    1069.70  E(vib)   ...       0.02
freq.    1077.05  E(vib)   ...       0.02
freq.    1080.20  E(vib)   ...       0.02
freq.    1089.20  E(vib)   ...       0.02
freq.    1124.92  E(vib)   ...       0.01
freq.    1150.32  E(vib)   ...       0.01
freq.    1185.75  E(vib)   ...       0.01
freq.    1197.78  E(vib)   ...       0.01
freq.    1213.50  E(vib)   ...       0.01
freq.    1235.67  E(vib)   ...       0.01
freq.    1253.23  E(vib)   ...       0.01
freq.    1263.21  E(vib)   ...       0.01
freq.    1275.46  E(vib)   ...       0.01
freq.    1291.18  E(vib)   ...       0.01
freq.    1323.50  E(vib)   ...       0.01
freq.    1330.47  E(vib)   ...       0.01
freq.    1358.30  E(vib)   ...       0.01
freq.    1373.91  E(vib)   ...       0.01
freq.    1379.74  E(vib)   ...       0.01
freq.    1382.66  E(vib)   ...       0.01
freq.    1393.58  E(vib)   ...       0.00
freq.    1416.13  E(vib)   ...       0.00
freq.    1430.45  E(vib)   ...       0.00
freq.    1431.96  E(vib)   ...       0.00
freq.    1451.21  E(vib)   ...       0.00
freq.    1458.60  E(vib)   ...       0.00
freq.    1464.46  E(vib)   ...       0.00
freq.    1502.69  E(vib)   ...       0.00
freq.    1507.20  E(vib)   ...       0.00
freq.    1512.50  E(vib)   ...       0.00
freq.    1513.77  E(vib)   ...       0.00
freq.    1516.00  E(vib)   ...       0.00
freq.    1518.38  E(vib)   ...       0.00
freq.    1521.80  E(vib)   ...       0.00
freq.    1524.30  E(vib)   ...       0.00
freq.    1527.24  E(vib)   ...       0.00
freq.    1532.32  E(vib)   ...       0.00
freq.    1536.12  E(vib)   ...       0.00
freq.    1540.00  E(vib)   ...       0.00
freq.    1787.79  E(vib)   ...       0.00
freq.    1798.54  E(vib)   ...       0.00
freq.    1799.81  E(vib)   ...       0.00
freq.    3086.64  E(vib)   ...       0.00
freq.    3090.34  E(vib)   ...       0.00
freq.    3092.37  E(vib)   ...       0.00
freq.    3093.06  E(vib)   ...       0.00
freq.    3096.35  E(vib)   ...       0.00
freq.    3097.22  E(vib)   ...       0.00
freq.    3113.76  E(vib)   ...       0.00
freq.    3118.20  E(vib)   ...       0.00
freq.    3153.78  E(vib)   ...       0.00
freq.    3154.19  E(vib)   ...       0.00
freq.    3165.59  E(vib)   ...       0.00
freq.    3166.22  E(vib)   ...       0.00
freq.    3170.45  E(vib)   ...       0.00
freq.    3179.30  E(vib)   ...       0.00
freq.    3179.67  E(vib)   ...       0.00
freq.    3184.23  E(vib)   ...       0.00
freq.    3189.15  E(vib)   ...       0.00
freq.    3190.23  E(vib)   ...       0.00
freq.    3192.57  E(vib)   ...       0.00
freq.    3196.42  E(vib)   ...       0.00
freq.    3210.87  E(vib)   ...       0.00
freq.    3216.09  E(vib)   ...       0.00
freq.    3219.55  E(vib)   ...       0.00
freq.    3220.18  E(vib)   ...       0.00

------------
INNER ENERGY
------------

The inner energy is: U= E(el) + E(ZPE) + E(vib) + E(rot) + E(trans)
    E(el)   - is the total energy from the electronic structure calculation
              = E(kin-el) + E(nuc-el) + E(el-el) + E(nuc-nuc)
    E(ZPE)  - the the zero temperature vibrational energy from the frequency calculation
    E(vib)  - the the finite temperature correction to E(ZPE) due to population
              of excited vibrational states
    E(rot)  - is the rotational thermal energy
    E(trans)- is the translational thermal energy

Summary of contributions to the inner energy U:
Electronic energy                ...    -99.89261932 Eh
Zero point energy                ...      0.36219167 Eh     227.28 kcal/mol
Thermal vibrational correction   ...      0.01336948 Eh       8.39 kcal/mol
Thermal rotational correction    ...      0.00141627 Eh       0.89 kcal/mol
Thermal translational correction ...      0.00141627 Eh       0.89 kcal/mol
-----------------------------------------------------------------------
Total thermal energy                    -99.51422562 Eh

Summary of corrections to the electronic energy:
(perhaps to be used in another calculation)
Total thermal correction                  0.01620203 Eh      10.17 kcal/mol
Non-thermal (ZPE) correction              0.36219167 Eh     227.28 kcal/mol
-----------------------------------------------------------------------
Total correction                          0.37839370 Eh     237.45 kcal/mol

Rotational constants in cm-1:     0.028006     0.016216     0.012879

                             ****ORCA TERMINATED NORMALLY****
TOTAL RUN TIME: 0 days 0 hours 37 minutes 52 seconds 930 msec
