                         Program Version 6.0.1  -  RELEASE   -
|  1> ! wB97X-3c OPT FREQ TightSCF
|  2> %pal
|  3>   nprocs 40
|  4> end
|  5> * xyz 0 1
|  6> C      2.314160     2.692855     1.264842
|  7> C      1.767982     1.633394     0.335413
|  8> C      2.225551     1.635108    -0.928257
|  9> C      0.734609     0.620000     0.861437
| 10> C     -0.663247     0.804169     0.212509
| 11> C     -0.865155     0.044170    -1.125928
| 12> C     -0.451311    -1.437472    -0.968997
| 13> C      0.986446    -1.580132    -0.451164
| 14> C      1.193945    -0.887032     0.921982
| 15> C      2.686044    -0.978120     1.325322
| 16> C      0.365981    -1.615199     1.990517
| 17> C      0.515715    -2.913087     2.290593
| 18> C     -2.309526     0.214498    -1.734555
| 19> C     -2.570930     1.693870    -2.082192
| 20> C     -3.438827    -0.258886    -0.782137
| 21> O     -2.384130    -0.493585    -2.953273
| 22> H      1.891638     2.619675     2.287797
| 23> H      2.073703     3.701311     0.866113
| 24> H      3.417239     2.588436     1.343779
| 25> H      2.953860     2.374911    -1.248205
| 26> H      1.917324     0.919012    -1.668812
| 27> H      0.574072     0.916613     1.921674
| 28> H     -1.419585     0.449585     0.942855
| 29> H     -0.841005     1.890287     0.069044
| 30> H     -0.180433     0.485165    -1.875040
| 31> H     -1.138935    -1.966032    -0.277249
| 32> H     -0.498962    -1.951683    -1.951886
| 33> H      1.224204    -2.662886    -0.377149
| 34> H      1.692155    -1.185598    -1.206862
| 35> H      3.340477    -0.512607     0.559116
| 36> H      2.856708    -0.463677     2.295716
| 37> H      3.015067    -2.033527     1.426093
| 38> H     -0.393486    -1.070208     2.544257
| 39> H     -0.106752    -3.365192     3.055926
| 40> H      1.247045    -3.536190     1.788263
| 41> H     -1.745534     2.103460    -2.703101
| 42> H     -3.512907     1.787590    -2.664892
| 43> H     -2.679916     2.318904    -1.171546
| 44> H     -3.515402     0.387298     0.116678
| 45> H     -3.286917    -1.307397    -0.456795
| 46> H     -4.416699    -0.212994    -1.308121
| 47> H     -2.574269    -1.448806    -2.761054
| 48> *
| 49>
| 50>                          ****END OF INPUT****
 Total Charge           Charge          ....    0
 Multiplicity           Mult            ....    1
 Number of Electrons    NEL             ....   92
Dispersion correction           -0.056137888
FINAL SINGLE POINT ENERGY      -117.172372504707
Dispersion correction             ... done (  0.1 sec)
Dispersion correction           -0.057572393
FINAL SINGLE POINT ENERGY      -117.185061995622
Dispersion correction             ... done (  0.1 sec)
Dispersion correction           -0.057722061
FINAL SINGLE POINT ENERGY      -117.186115533378
Dispersion correction             ... done (  0.0 sec)
FINAL SINGLE POINT ENERGY      -117.186543753448
FINAL SINGLE POINT ENERGY      -117.186823656009
FINAL SINGLE POINT ENERGY      -117.187309573214
FINAL SINGLE POINT ENERGY      -117.187830607868
FINAL SINGLE POINT ENERGY      -117.188401577558
FINAL SINGLE POINT ENERGY      -117.188806127621
FINAL SINGLE POINT ENERGY      -117.189064633696
FINAL SINGLE POINT ENERGY      -117.192985860049
FINAL SINGLE POINT ENERGY      -117.193076229978
FINAL SINGLE POINT ENERGY      -117.193019927724
FINAL SINGLE POINT ENERGY      -117.193145262016
FINAL SINGLE POINT ENERGY      -117.193160990978
FINAL SINGLE POINT ENERGY      -117.193174036688
FINAL SINGLE POINT ENERGY      -117.193178296475
Dispersion correction             ... done (  0.1 sec)
Dispersion correction           -0.057827552
FINAL SINGLE POINT ENERGY      -117.193180689992
Dispersion correction             ... done (  0.1 sec)
Dispersion correction           -0.057826481
FINAL SINGLE POINT ENERGY      -117.193181383730
Dispersion correction             ... done (  0.1 sec)
                    ***********************HURRAY********************

CARTESIAN COORDINATES (ANGSTROEM)
---------------------------------
  C      1.830051    2.857952    1.008913
  C      1.698391    1.594147    0.212287
  C      2.279110    1.497824   -0.976597
  C      0.826846    0.550618    0.883544
  C     -0.615039    0.651018    0.369667
  C     -0.794863    0.033508   -1.009223
  C     -0.398301   -1.435908   -0.944274
  C      1.022586   -1.618667   -0.430916
  C      1.304661   -0.923690    0.899480
  C      2.796335   -1.009020    1.222793
  C      0.594277   -1.600010    2.052377
  C      0.013341   -2.787924    2.081009
  C     -2.195984    0.265591   -1.612601
  C     -2.451217    1.745776   -1.831022
  C     -3.318372   -0.337592   -0.782365
  O     -2.232801   -0.294895   -2.924137
  H      0.848524    3.251113    1.279006
  H      2.367054    3.628305    0.460185
  H      2.361416    2.665723    1.942449
  H      2.852050    2.326192   -1.373584
  H      2.221137    0.617267   -1.595958
  H      0.795145    0.851287    1.934446
  H     -1.265364    0.140752    1.083285
  H     -0.910053    1.699839    0.365626
  H     -0.111197    0.534144   -1.698985
  H     -1.091065   -1.972115   -0.294516
  H     -0.459712   -1.894252   -1.932603
  H      1.250636   -2.681571   -0.333632
  H      1.723335   -1.245846   -1.176620
  H      3.395856   -0.530694    0.452425
  H      3.018242   -0.519586    2.172171
  H      3.101039   -2.051463    1.307710
  H      0.628624   -1.036961    2.981927
  H     -0.408589   -3.170254    3.000859
  H     -0.064283   -3.425515    1.210610
  H     -1.628836    2.196061   -2.385048
  H     -3.362156    1.869659   -2.413586
  H     -2.572314    2.277087   -0.890637
  H     -3.358410    0.098655    0.213776
  H     -3.202812   -1.415478   -0.670441
  H     -4.271713   -0.151634   -1.274700
  H     -2.215579   -1.249442   -2.860386

 Multiplicity           Mult            ....    1
 Number of Electrons    NEL             ....   92
 Basis Dimension        Dim             ....  338

ORBITAL ENERGIES
----------------

  NO   OCC          E(Eh)            E(eV)
   0   2.0000      -1.143339       -31.1118
   1   2.0000      -1.007718       -27.4214
   2   2.0000      -0.945909       -25.7395
   3   2.0000      -0.944887       -25.7117
   4   2.0000      -0.899976       -24.4896
   5   2.0000      -0.877517       -23.8784
   6   2.0000      -0.874360       -23.7925
   7   2.0000      -0.826525       -22.4909
   8   2.0000      -0.820590       -22.3294
   9   2.0000      -0.812556       -22.1108
  10   2.0000      -0.756971       -20.5982
  11   2.0000      -0.744784       -20.2666
  12   2.0000      -0.722931       -19.6720
  13   2.0000      -0.678487       -18.4626
  14   2.0000      -0.660104       -17.9623
  15   2.0000      -0.642703       -17.4888
  16   2.0000      -0.624705       -16.9991
  17   2.0000      -0.601197       -16.3594
  18   2.0000      -0.583046       -15.8655
  19   2.0000      -0.572143       -15.5688
  20   2.0000      -0.568179       -15.4609
  21   2.0000      -0.560480       -15.2514
  22   2.0000      -0.549102       -14.9418
  23   2.0000      -0.542703       -14.7677
  24   2.0000      -0.540062       -14.6958
  25   2.0000      -0.528941       -14.3932
  26   2.0000      -0.519930       -14.1480
  27   2.0000      -0.512243       -13.9388
  28   2.0000      -0.503456       -13.6997
  29   2.0000      -0.494279       -13.4500
  30   2.0000      -0.489492       -13.3198
  31   2.0000      -0.484727       -13.1901
  32   2.0000      -0.475150       -12.9295
  33   2.0000      -0.473131       -12.8746
  34   2.0000      -0.465244       -12.6599
  35   2.0000      -0.460983       -12.5440
  36   2.0000      -0.452695       -12.3185
  37   2.0000      -0.442863       -12.0509
  38   2.0000      -0.440296       -11.9811
  39   2.0000      -0.426905       -11.6167
  40   2.0000      -0.412293       -11.2191
  41   2.0000      -0.404816       -11.0156
  42   2.0000      -0.393702       -10.7132
  43   2.0000      -0.372431       -10.1344
  44   2.0000      -0.364904        -9.9295
  45   2.0000      -0.345348        -9.3974
  46   0.0000       0.081494         2.2176
  47   0.0000       0.085433         2.3247
  48   0.0000       0.088402         2.4055
  49   0.0000       0.089851         2.4450
  50   0.0000       0.098970         2.6931

MULLIKEN ATOMIC CHARGES
-----------------------
   0 C :   -0.032489
   1 C :   -0.076230
   2 C :   -0.016460
   3 C :   -0.093606
   4 C :    0.023102
   5 C :   -0.031896
   6 C :   -0.022916
   7 C :    0.006557
   8 C :   -0.195242
   9 C :    0.014060
  10 C :   -0.008182
  11 C :   -0.030143
  12 C :   -0.062071
  13 C :    0.000212
  14 C :   -0.007739
  15 O :   -0.292566
  16 H :    0.031915
  17 H :    0.028748
  18 H :    0.038071
  19 H :    0.020249
  20 H :    0.020472
  21 H :    0.021765
  22 H :    0.035747
  23 H :    0.020624
  24 H :    0.034491
  25 H :    0.013638
  26 H :    0.031146
  27 H :    0.027551
  28 H :    0.017682
  29 H :    0.034682
  30 H :    0.021931
  31 H :    0.034616
  32 H :    0.013592
  33 H :    0.025649
  34 H :    0.024621
  35 H :    0.036590
  36 H :    0.035707
  37 H :    0.025264
  38 H :    0.028789
  39 H :    0.022450
  40 H :    0.037043
  41 H :    0.142575
Sum of atomic charges:    0.0000000

LOEWDIN ATOMIC CHARGES
----------------------
   0 C :   -0.105799
   1 C :   -0.033932
   2 C :   -0.077141
   3 C :   -0.049891
   4 C :   -0.057244
   5 C :   -0.054562
   6 C :   -0.073399
   7 C :   -0.065534
   8 C :   -0.066030
   9 C :   -0.093176
  10 C :   -0.034435
  11 C :   -0.075619
  12 C :   -0.048956
  13 C :   -0.095350
  14 C :   -0.101416
  15 O :   -0.060314
  16 H :    0.048188
  17 H :    0.049982
  18 H :    0.048877
  19 H :    0.032206
  20 H :    0.021767
  21 H :    0.050242
  22 H :    0.044737
  23 H :    0.043061
  24 H :    0.048960
  25 H :    0.035308
  26 H :    0.041871
  27 H :    0.045831
  28 H :    0.041610
  29 H :    0.043924
  30 H :    0.044982
  31 H :    0.046917
  32 H :    0.043482
  33 H :    0.036408
  34 H :    0.030628
  35 H :    0.049122
  36 H :    0.050033
  37 H :    0.041403
  38 H :    0.046105
  39 H :    0.039286
  40 H :    0.049746
  41 H :    0.018121

  Mayer bond orders larger than 0.100000
B(  0-C ,  1-C ) :   1.0281 B(  0-C , 16-H ) :   0.9799 B(  0-C , 17-H ) :   0.9909
B(  0-C , 18-H ) :   0.9786 B(  1-C ,  2-C ) :   1.9500 B(  1-C ,  3-C ) :   1.0245
B(  2-C , 19-H ) :   0.9806 B(  2-C , 20-H ) :   0.9823 B(  3-C ,  4-C ) :   1.0009
B(  3-C ,  8-C ) :   0.9729 B(  3-C , 21-H ) :   0.9955 B(  4-C ,  5-C ) :   0.9647
B(  4-C , 22-H ) :   0.9815 B(  4-C , 23-H ) :   0.9962 B(  5-C ,  6-C ) :   0.9755
B(  5-C , 12-C ) :   1.0151 B(  5-C , 24-H ) :   0.9798 B(  6-C ,  7-C ) :   1.0059
B(  6-C , 25-H ) :   0.9842 B(  6-C , 26-H ) :   0.9948 B(  7-C ,  8-C ) :   0.9781
B(  7-C , 27-H ) :   0.9932 B(  7-C , 28-H ) :   0.9938 B(  8-C ,  9-C ) :   1.0141
B(  8-C , 10-C ) :   1.0391 B(  9-C , 29-H ) :   0.9841 B(  9-C , 30-H ) :   0.9872
B(  9-C , 31-H ) :   0.9874 B( 10-C , 11-C ) :   1.9563 B( 10-C , 32-H ) :   0.9990
B( 11-C , 33-H ) :   0.9876 B( 11-C , 34-H ) :   0.9887 B( 12-C , 13-C ) :   1.0142
B( 12-C , 14-C ) :   1.0041 B( 12-C , 15-O ) :   0.9935 B( 13-C , 35-H ) :   0.9883
B( 13-C , 36-H ) :   0.9885 B( 13-C , 37-H ) :   0.9869 B( 14-C , 38-H ) :   0.9829
B( 14-C , 39-H ) :   0.9865 B( 14-C , 40-H ) :   0.9878 B( 15-O , 41-H ) :   1.0590

Dispersion correction           -0.057827322
FINAL SINGLE POINT ENERGY      -117.193181761376

DIPOLE MOMENT
-------------

Method             : SCF
Type of density    : Electron Density
Multiplicity       :   1
Irrep              :   0
Energy             :  -117.1353544395827839 Eh
Relativity type    :
Basis              : AO
                                X                 Y                 Z
Electronic contribution:      2.612971741      -2.350497243      -0.090639092
Nuclear contribution   :     -2.530204043       2.184526510       0.780935687
                        -----------------------------------------
Total Dipole Moment    :      0.082767699      -0.165970733       0.690296595
                        -----------------------------------------
Magnitude (a.u.)       :      0.714777004
Magnitude (Debye)      :      1.816818759

VIBRATIONAL FREQUENCIES
-----------------------

Scaling factor for frequencies =  1.000000000  (already applied!)

     0:       0.00 cm**-1
     1:       0.00 cm**-1
     2:       0.00 cm**-1
     3:       0.00 cm**-1
     4:       0.00 cm**-1
     5:       0.00 cm**-1
     6:      35.38 cm**-1
     7:      37.64 cm**-1
     8:      68.91 cm**-1
     9:     103.70 cm**-1
    10:     114.04 cm**-1
    11:     175.70 cm**-1
    12:     181.79 cm**-1
    13:     196.49 cm**-1
    14:     218.07 cm**-1
    15:     237.41 cm**-1
    16:     239.79 cm**-1
    17:     252.15 cm**-1
    18:     260.13 cm**-1
    19:     275.07 cm**-1
    20:     283.38 cm**-1
    21:     289.67 cm**-1
    22:     330.70 cm**-1
    23:     336.64 cm**-1
    24:     348.59 cm**-1
    25:     361.96 cm**-1
    26:     373.58 cm**-1
    27:     388.67 cm**-1
    28:     425.07 cm**-1
    29:     466.27 cm**-1
    30:     477.18 cm**-1
    31:     499.80 cm**-1
    32:     509.03 cm**-1
    33:     535.17 cm**-1
    34:     576.92 cm**-1
    35:     610.86 cm**-1
    36:     643.71 cm**-1
    37:     715.19 cm**-1
    38:     749.21 cm**-1
    39:     756.21 cm**-1
    40:     803.87 cm**-1
    41:     832.79 cm**-1
    42:     864.59 cm**-1
    43:     926.49 cm**-1
    44:     939.42 cm**-1
    45:     944.09 cm**-1
    46:     949.50 cm**-1
    47:     961.05 cm**-1
    48:     964.71 cm**-1
    49:     965.59 cm**-1
    50:     993.98 cm**-1
    51:    1003.79 cm**-1
    52:    1029.94 cm**-1
    53:    1036.40 cm**-1
    54:    1056.07 cm**-1
    55:    1061.56 cm**-1
    56:    1064.92 cm**-1
    57:    1068.21 cm**-1
    58:    1082.18 cm**-1
    59:    1090.98 cm**-1
    60:    1113.70 cm**-1
    61:    1137.17 cm**-1
    62:    1166.01 cm**-1
    63:    1174.32 cm**-1
    64:    1217.82 cm**-1
    65:    1226.60 cm**-1
    66:    1236.05 cm**-1
    67:    1270.66 cm**-1
    68:    1290.66 cm**-1
    69:    1298.78 cm**-1
    70:    1319.53 cm**-1
    71:    1330.87 cm**-1
    72:    1345.84 cm**-1
    73:    1359.45 cm**-1
    74:    1373.55 cm**-1
    75:    1375.30 cm**-1
    76:    1394.31 cm**-1
    77:    1418.93 cm**-1
    78:    1436.11 cm**-1
    79:    1440.40 cm**-1
    80:    1441.89 cm**-1
    81:    1444.76 cm**-1
    82:    1453.43 cm**-1
    83:    1461.08 cm**-1
    84:    1467.68 cm**-1
    85:    1475.27 cm**-1
    86:    1482.04 cm**-1
    87:    1508.10 cm**-1
    88:    1511.66 cm**-1
    89:    1513.54 cm**-1
    90:    1520.22 cm**-1
    91:    1522.32 cm**-1
    92:    1524.57 cm**-1
    93:    1527.79 cm**-1
    94:    1529.45 cm**-1
    95:    1534.71 cm**-1
    96:    1539.77 cm**-1
    97:    1545.34 cm**-1
    98:    1763.76 cm**-1
    99:    1774.91 cm**-1
   100:    3081.04 cm**-1
   101:    3094.59 cm**-1
   102:    3099.83 cm**-1
   103:    3101.59 cm**-1
   104:    3103.90 cm**-1
   105:    3107.44 cm**-1
   106:    3113.18 cm**-1
   107:    3115.28 cm**-1
   108:    3117.52 cm**-1
   109:    3156.16 cm**-1
   110:    3164.84 cm**-1
   111:    3171.34 cm**-1
   112:    3171.73 cm**-1
   113:    3184.81 cm**-1
   114:    3187.95 cm**-1
   115:    3194.94 cm**-1
   116:    3206.14 cm**-1
   117:    3207.28 cm**-1
   118:    3208.78 cm**-1
   119:    3215.10 cm**-1
   120:    3218.28 cm**-1
   121:    3221.13 cm**-1
   122:    3221.33 cm**-1
   123:    3307.76 cm**-1
   124:    3325.11 cm**-1
   125:    3966.33 cm**-1

IR SPECTRUM
-----------

 Mode   freq       eps      Int      T**2         TX        TY        TZ
       cm**-1   L/(mol*cm) km/mol    a.u.
----------------------------------------------------------------------------
  6:     35.38   0.000059    0.30  0.000523  (-0.016939  0.015351  0.000745)
  7:     37.64   0.000073    0.37  0.000604  (-0.001001 -0.020871 -0.012955)
  8:     68.91   0.000016    0.08  0.000071  (-0.008298 -0.001420  0.000459)
  9:    103.70   0.000001    0.00  0.000002  ( 0.000886 -0.001050 -0.000540)
 10:    114.04   0.000003    0.01  0.000008  ( 0.001539  0.002036 -0.001240)
 11:    175.70   0.000372    1.88  0.000660  ( 0.024539 -0.006918  0.003166)
 12:    181.79   0.000168    0.85  0.000289  ( 0.016248 -0.000853 -0.004914)
 13:    196.49   0.000230    1.16  0.000365  ( 0.018966  0.002361  0.000441)
 14:    218.07   0.000166    0.84  0.000238  (-0.014525  0.001290 -0.004997)
 15:    237.41   0.001230    6.22  0.001617  ( 0.038467  0.009076  0.007388)
 16:    239.79   0.000476    2.40  0.000619  (-0.024298 -0.001537 -0.005119)
 17:    252.15   0.000279    1.41  0.000345  ( 0.018139 -0.001195  0.003843)
 18:    260.13   0.002885   14.58  0.003461  (-0.058407 -0.001519 -0.006848)
 19:    275.07   0.000066    0.33  0.000075  (-0.008500  0.000385 -0.001621)
 20:    283.38   0.020247  102.32  0.022296  ( 0.147657 -0.001679  0.022150)
 21:    289.67   0.000494    2.50  0.000532  ( 0.022837 -0.002887 -0.001507)
 22:    330.70   0.000032    0.16  0.000030  ( 0.002880 -0.004481  0.001206)
 23:    336.64   0.001313    6.63  0.001217  ( 0.033052  0.011125  0.000921)
 24:    348.59   0.000921    4.66  0.000825  (-0.028107  0.000419 -0.005872)
 25:    361.96   0.000264    1.33  0.000228  ( 0.014265  0.004646 -0.001558)
 26:    373.58   0.000059    0.30  0.000049  (-0.005250  0.000672  0.004611)
 27:    388.67   0.000384    1.94  0.000308  ( 0.017079 -0.000056  0.004084)
 28:    425.07   0.001665    8.41  0.001222  (-0.022712 -0.013620 -0.022823)
 29:    466.27   0.000392    1.98  0.000263  ( 0.009804 -0.011705  0.005434)
 30:    477.18   0.000030    0.15  0.000020  ( 0.001840  0.003058  0.002604)
 31:    499.80   0.001053    5.32  0.000658  ( 0.025033  0.003931  0.003924)
 32:    509.03   0.001034    5.23  0.000634  (-0.023973 -0.006065 -0.004761)
 33:    535.17   0.001385    7.00  0.000807  (-0.015556 -0.017999 -0.015537)
 34:    576.92   0.000885    4.47  0.000479  (-0.018739  0.011217  0.001395)
 35:    610.86   0.000326    1.65  0.000166  (-0.006724 -0.001186 -0.010949)
 36:    643.71   0.000724    3.66  0.000351  (-0.009259  0.008829 -0.013679)
 37:    715.19   0.002217   11.20  0.000967  ( 0.026457 -0.014969  0.006575)
 38:    749.21   0.000200    1.01  0.000083  (-0.006747 -0.003092 -0.005326)
 39:    756.21   0.000250    1.27  0.000103  ( 0.002820  0.004675 -0.008574)
 40:    803.87   0.000255    1.29  0.000099  ( 0.001987  0.009536 -0.002006)
 41:    832.79   0.000276    1.39  0.000103  ( 0.005428  0.008590 -0.000382)
 42:    864.59   0.000431    2.18  0.000156  (-0.002243 -0.003283 -0.011823)
 43:    926.49   0.000231    1.17  0.000078  ( 0.003769 -0.007909  0.000987)
 44:    939.42   0.005050   25.52  0.001678  (-0.031468  0.024307 -0.009821)
 45:    944.09   0.003139   15.86  0.001038  ( 0.025719  0.003451  0.019086)
 46:    949.50   0.000644    3.25  0.000212  (-0.006060  0.009887 -0.008783)
 47:    961.05   0.000113    0.57  0.000037  ( 0.003126 -0.005184 -0.000308)
 48:    964.71   0.008394   42.42  0.002715  (-0.038838  0.017307 -0.030123)
 49:    965.59   0.002926   14.79  0.000946  ( 0.025631 -0.013705 -0.010042)
 50:    993.98   0.001780    8.99  0.000559  (-0.006601  0.009374  0.020672)
 51:   1003.79   0.002145   10.84  0.000667  (-0.001274  0.014898  0.021054)
 52:   1029.94   0.000090    0.46  0.000027  (-0.001391  0.004958 -0.000942)
 53:   1036.40   0.001650    8.34  0.000497  (-0.010428 -0.005542 -0.018905)
 54:   1056.07   0.000905    4.57  0.000267  (-0.013247 -0.004011 -0.008708)
 55:   1061.56   0.001311    6.63  0.000385  (-0.015436  0.005898 -0.010599)
 56:   1064.92   0.001841    9.31  0.000540  (-0.003997  0.020244  0.010666)
 57:   1068.21   0.001266    6.40  0.000370  ( 0.001072  0.015801 -0.010915)
 58:   1082.18   0.002577   13.02  0.000743  ( 0.004746 -0.012539  0.023736)
 59:   1090.98   0.000112    0.56  0.000032  (-0.003400 -0.003968 -0.002143)
 60:   1113.70   0.000775    3.91  0.000217  ( 0.000830 -0.011137 -0.009608)
 61:   1137.17   0.006552   33.11  0.001798  (-0.009589 -0.017273 -0.037521)
 62:   1166.01   0.001486    7.51  0.000398  ( 0.004900  0.000095  0.019328)
 63:   1174.32   0.002104   10.63  0.000559  (-0.009042  0.020945 -0.006210)
 64:   1217.82   0.001249    6.31  0.000320  ( 0.003249 -0.000371 -0.017587)
 65:   1226.60   0.010356   52.34  0.002635  ( 0.013083  0.026648  0.041874)
 66:   1236.05   0.002872   14.51  0.000725  (-0.005826 -0.007040  0.025329)
 67:   1270.66   0.000642    3.24  0.000158  (-0.009284 -0.007100  0.004586)
 68:   1290.66   0.006009   30.37  0.001453  (-0.020090 -0.003989 -0.032146)
 69:   1298.78   0.003383   17.10  0.000813  ( 0.027143 -0.001704  0.008560)
 70:   1319.53   0.001802    9.11  0.000426  (-0.014983  0.004619  0.013432)
 71:   1330.87   0.000165    0.83  0.000039  ( 0.000433  0.003722 -0.004963)
 72:   1345.84   0.001717    8.68  0.000398  ( 0.003153 -0.000968  0.019678)
 73:   1359.45   0.001011    5.11  0.000232  (-0.000763 -0.001973 -0.015088)
 74:   1373.55   0.000388    1.96  0.000088  (-0.007741 -0.002877 -0.004464)
 75:   1375.30   0.000107    0.54  0.000024  ( 0.000588 -0.001995 -0.004463)
 76:   1394.31   0.005423   27.41  0.001214  ( 0.020167  0.006229  0.027718)
 77:   1418.93   0.000005    0.02  0.000001  ( 0.000897  0.000364 -0.000375)
 78:   1436.11   0.001264    6.39  0.000275  (-0.015454  0.005501 -0.002385)
 79:   1440.40   0.001460    7.38  0.000316  (-0.006456  0.000663 -0.016556)
 80:   1441.89   0.001268    6.41  0.000274  ( 0.002598 -0.014482 -0.007614)
 81:   1444.76   0.006194   31.30  0.001338  ( 0.012599  0.027625 -0.020394)
 82:   1453.43   0.005070   25.62  0.001089  ( 0.026067 -0.018000 -0.009230)
 83:   1461.08   0.002268   11.46  0.000484  ( 0.000539 -0.006248  0.021098)
 84:   1467.68   0.000040    0.20  0.000008  (-0.001680 -0.000324 -0.002350)
 85:   1475.27   0.001358    6.86  0.000287  ( 0.003075  0.013573 -0.009670)
 86:   1482.04   0.001343    6.79  0.000283  (-0.009159 -0.013714  0.003289)
 87:   1508.10   0.000697    3.52  0.000144  ( 0.006040  0.002445  0.010091)
 88:   1511.66   0.001051    5.31  0.000217  (-0.013819  0.002810 -0.004253)
 89:   1513.54   0.001530    7.73  0.000315  (-0.008127  0.015465 -0.003191)
 90:   1520.22   0.000939    4.75  0.000193  ( 0.003026  0.009694 -0.009467)
 91:   1522.32   0.000193    0.98  0.000040  (-0.001760  0.001268 -0.005909)
 92:   1524.57   0.001051    5.31  0.000215  (-0.011649 -0.002975 -0.008395)
 93:   1527.79   0.001830    9.25  0.000374  ( 0.014250  0.000006 -0.013068)
 94:   1529.45   0.002081   10.51  0.000425  ( 0.000931  0.020042 -0.004684)
 95:   1534.71   0.003435   17.36  0.000698  (-0.021073  0.008279  0.013631)
 96:   1539.77   0.001471    7.43  0.000298  ( 0.012234  0.004329  0.011388)
 97:   1545.34   0.003693   18.66  0.000746  ( 0.008651 -0.012195 -0.022852)
 98:   1763.76   0.003228   16.31  0.000571  ( 0.010064  0.020608 -0.006712)
 99:   1774.91   0.004315   21.81  0.000759  ( 0.013799 -0.002210 -0.023736)
100:   3081.04   0.003096   15.64  0.000314  ( 0.004520  0.003514  0.016756)
101:   3094.59   0.005215   26.35  0.000526  ( 0.002009  0.017491  0.014694)
102:   3099.83   0.004862   24.57  0.000490  ( 0.019922 -0.002423  0.009314)
103:   3101.59   0.003427   17.32  0.000345  ( 0.012772  0.002666  0.013213)
104:   3103.90   0.004265   21.56  0.000429  (-0.004807 -0.013873 -0.014603)
105:   3107.44   0.006718   33.95  0.000675  ( 0.022416  0.009074 -0.009480)
106:   3113.18   0.004871   24.62  0.000488  (-0.017092  0.007128  0.012056)
107:   3115.28   0.004620   23.35  0.000463  ( 0.010194 -0.018761  0.002623)
108:   3117.52   0.004758   24.04  0.000476  ( 0.003832 -0.020805 -0.005361)
109:   3156.16   0.002360   11.92  0.000233  (-0.003627  0.011481  0.009398)
110:   3164.84   0.003622   18.30  0.000357  (-0.001403 -0.018433  0.003924)
111:   3171.34   0.006255   31.61  0.000616  ( 0.014564  0.010114 -0.017352)
112:   3171.73   0.002729   13.79  0.000268  (-0.008599  0.009822 -0.009903)
113:   3184.81   0.001472    7.44  0.000144  ( 0.003465 -0.010481 -0.004734)
114:   3187.95   0.004633   23.41  0.000454  (-0.002674 -0.014039 -0.015788)
115:   3194.94   0.003486   17.62  0.000341  ( 0.008646 -0.015828  0.003906)
116:   3206.14   0.001831    9.26  0.000178  (-0.012496  0.002421  0.004030)
117:   3207.28   0.002276   11.50  0.000221  ( 0.008076  0.010433 -0.006882)
118:   3208.78   0.003078   15.56  0.000299  ( 0.013178  0.004935  0.010068)
119:   3215.10   0.002685   13.57  0.000261  ( 0.005482  0.009785 -0.011609)
120:   3218.28   0.000781    3.95  0.000076  (-0.002517 -0.007182  0.004225)
121:   3221.13   0.002316   11.71  0.000224  ( 0.003695  0.007373  0.012506)
122:   3221.33   0.003485   17.61  0.000338  (-0.008668 -0.004763  0.015486)
123:   3307.76   0.000924    4.67  0.000087  ( 0.001006 -0.000703 -0.009254)
124:   3325.11   0.001091    5.51  0.000102  ( 0.003601  0.009229  0.002056)
125:   3966.33   0.005578   28.19  0.000439  (-0.000425 -0.020363 -0.004905)

--------------------------
THERMOCHEMISTRY AT 298.15K
--------------------------

Temperature         ...   298.15 K
Pressure            ...     1.00 atm
Total Mass          ...   222.37 AMU
Quasi RRHO          ...     True
Cut-Off Frequency   ...     1.00 cm^-1

Throughout the following assumptions are being made:
  (1) The electronic state is orbitally nondegenerate
  (2) There are no thermally accessible electronically excited states
  (3) Hindered rotations indicated by low frequency modes are not
      treated as such but are treated as vibrations and this may
      cause some error
  (4) All equations used are the standard statistical mechanics
      equations for an ideal gas
  (5) All vibrations are strictly harmonic

freq.      35.38  E(vib)   ...       0.54
freq.      37.64  E(vib)   ...       0.54
freq.      68.91  E(vib)   ...       0.50
freq.     103.70  E(vib)   ...       0.46
freq.     114.04  E(vib)   ...       0.44
freq.     175.70  E(vib)   ...       0.38
freq.     181.79  E(vib)   ...       0.37
freq.     196.49  E(vib)   ...       0.36
freq.     218.07  E(vib)   ...       0.33
freq.     237.41  E(vib)   ...       0.32
freq.     239.79  E(vib)   ...       0.31
freq.     252.15  E(vib)   ...       0.30
freq.     260.13  E(vib)   ...       0.30
freq.     275.07  E(vib)   ...       0.28
freq.     283.38  E(vib)   ...       0.28
freq.     289.67  E(vib)   ...       0.27
freq.     330.70  E(vib)   ...       0.24
freq.     336.64  E(vib)   ...       0.24
freq.     348.59  E(vib)   ...       0.23
freq.     361.96  E(vib)   ...       0.22
freq.     373.58  E(vib)   ...       0.21
freq.     388.67  E(vib)   ...       0.20
freq.     425.07  E(vib)   ...       0.18
freq.     466.27  E(vib)   ...       0.16
freq.     477.18  E(vib)   ...       0.15
freq.     499.80  E(vib)   ...       0.14
freq.     509.03  E(vib)   ...       0.14
freq.     535.17  E(vib)   ...       0.13
freq.     576.92  E(vib)   ...       0.11
freq.     610.86  E(vib)   ...       0.10
freq.     643.71  E(vib)   ...       0.09
freq.     715.19  E(vib)   ...       0.07
freq.     749.21  E(vib)   ...       0.06
freq.     756.21  E(vib)   ...       0.06
freq.     803.87  E(vib)   ...       0.05
freq.     832.79  E(vib)   ...       0.04
freq.     864.59  E(vib)   ...       0.04
freq.     926.49  E(vib)   ...       0.03
freq.     939.42  E(vib)   ...       0.03
freq.     944.09  E(vib)   ...       0.03
freq.     949.50  E(vib)   ...       0.03
freq.     961.05  E(vib)   ...       0.03
freq.     964.71  E(vib)   ...       0.03
freq.     965.59  E(vib)   ...       0.03
freq.     993.98  E(vib)   ...       0.02
freq.    1003.79  E(vib)   ...       0.02
freq.    1029.94  E(vib)   ...       0.02
freq.    1036.40  E(vib)   ...       0.02
freq.    1056.07  E(vib)   ...       0.02
freq.    1061.56  E(vib)   ...       0.02
freq.    1064.92  E(vib)   ...       0.02
freq.    1068.21  E(vib)   ...       0.02
freq.    1082.18  E(vib)   ...       0.02
freq.    1090.98  E(vib)   ...       0.02
freq.    1113.70  E(vib)   ...       0.01
freq.    1137.17  E(vib)   ...       0.01
freq.    1166.01  E(vib)   ...       0.01
freq.    1174.32  E(vib)   ...       0.01
freq.    1217.82  E(vib)   ...       0.01
freq.    1226.60  E(vib)   ...       0.01
freq.    1236.05  E(vib)   ...       0.01
freq.    1270.66  E(vib)   ...       0.01
freq.    1290.66  E(vib)   ...       0.01
freq.    1298.78  E(vib)   ...       0.01
freq.    1319.53  E(vib)   ...       0.01
freq.    1330.87  E(vib)   ...       0.01
freq.    1345.84  E(vib)   ...       0.01
freq.    1359.45  E(vib)   ...       0.01
freq.    1373.55  E(vib)   ...       0.01
freq.    1375.30  E(vib)   ...       0.01
freq.    1394.31  E(vib)   ...       0.00
freq.    1418.93  E(vib)   ...       0.00
freq.    1436.11  E(vib)   ...       0.00
freq.    1440.40  E(vib)   ...       0.00
freq.    1441.89  E(vib)   ...       0.00
freq.    1444.76  E(vib)   ...       0.00
freq.    1453.43  E(vib)   ...       0.00
freq.    1461.08  E(vib)   ...       0.00
freq.    1467.68  E(vib)   ...       0.00
freq.    1475.27  E(vib)   ...       0.00
freq.    1482.04  E(vib)   ...       0.00
freq.    1508.10  E(vib)   ...       0.00
freq.    1511.66  E(vib)   ...       0.00
freq.    1513.54  E(vib)   ...       0.00
freq.    1520.22  E(vib)   ...       0.00
freq.    1522.32  E(vib)   ...       0.00
freq.    1524.57  E(vib)   ...       0.00
freq.    1527.79  E(vib)   ...       0.00
freq.    1529.45  E(vib)   ...       0.00
freq.    1534.71  E(vib)   ...       0.00
freq.    1539.77  E(vib)   ...       0.00
freq.    1545.34  E(vib)   ...       0.00
freq.    1763.76  E(vib)   ...       0.00
freq.    1774.91  E(vib)   ...       0.00
freq.    3081.04  E(vib)   ...       0.00
freq.    3094.59  E(vib)   ...       0.00
freq.    3099.83  E(vib)   ...       0.00
freq.    3101.59  E(vib)   ...       0.00
freq.    3103.90  E(vib)   ...       0.00
freq.    3107.44  E(vib)   ...       0.00
freq.    3113.18  E(vib)   ...       0.00
freq.    3115.28  E(vib)   ...       0.00
freq.    3117.52  E(vib)   ...       0.00
freq.    3156.16  E(vib)   ...       0.00
freq.    3164.84  E(vib)   ...       0.00
freq.    3171.34  E(vib)   ...       0.00
freq.    3171.73  E(vib)   ...       0.00
freq.    3184.81  E(vib)   ...       0.00
freq.    3187.95  E(vib)   ...       0.00
freq.    3194.94  E(vib)   ...       0.00
freq.    3206.14  E(vib)   ...       0.00
freq.    3207.28  E(vib)   ...       0.00
freq.    3208.78  E(vib)   ...       0.00
freq.    3215.10  E(vib)   ...       0.00
freq.    3218.28  E(vib)   ...       0.00
freq.    3221.13  E(vib)   ...       0.00
freq.    3221.33  E(vib)   ...       0.00
freq.    3307.76  E(vib)   ...       0.00
freq.    3325.11  E(vib)   ...       0.00
freq.    3966.33  E(vib)   ...       0.00

------------
INNER ENERGY
------------

The inner energy is: U= E(el) + E(ZPE) + E(vib) + E(rot) + E(trans)
    E(el)   - is the total energy from the electronic structure calculation
              = E(kin-el) + E(nuc-el) + E(el-el) + E(nuc-nuc)
    E(ZPE)  - the the zero temperature vibrational energy from the frequency calculation
    E(vib)  - the the finite temperature correction to E(ZPE) due to population
              of excited vibrational states
    E(rot)  - is the rotational thermal energy
    E(trans)- is the translational thermal energy

Summary of contributions to the inner energy U:
Electronic energy                ...   -117.19318176 Eh
Zero point energy                ...      0.39058260 Eh     245.09 kcal/mol
Thermal vibrational correction   ...      0.01500582 Eh       9.42 kcal/mol
Thermal rotational correction    ...      0.00141627 Eh       0.89 kcal/mol
Thermal translational correction ...      0.00141627 Eh       0.89 kcal/mol
-----------------------------------------------------------------------
Total thermal energy                   -116.78476080 Eh

Rotational constants in cm-1:     0.022735     0.014097     0.010833

                             ****ORCA TERMINATED NORMALLY****
TOTAL RUN TIME: 0 days 1 hours 6 minutes 48 seconds 736 msec
