                         Program Version 6.0.1  -  RELEASE   -
|  1> ! wB97X-3c OPT FREQ TightSCF
|  2> %pal
|  3>   nprocs 40
|  4> end
|  5> * xyz 0 1
|  6> C      1.818481    -2.119731    -0.222023
|  7> C      1.312028    -0.722388     0.179956
|  8> C     -0.187131    -0.760924     0.563456
|  9> C     -1.105854    -1.071702    -0.629698
| 10> C     -2.551828    -0.838540    -0.266910
| 11> C     -3.180854     0.353964    -0.375637
| 12> C     -4.622475     0.482382     0.043535
| 13> C     -2.497303     1.571404    -0.948047
| 14> C      2.132123    -0.149015     1.363240
| 15> C      3.601742     0.148171     1.022959
| 16> O      3.716587     0.973948    -0.135639
| 17> C      3.417796     2.339952    -0.140467
| 18> O      3.067961     2.935573     0.913329
| 19> H      1.247472    -2.513381    -1.086922
| 20> H      2.878732    -2.077724    -0.542996
| 21> H      1.724557    -2.830383     0.626769
| 22> H      1.426511    -0.041389    -0.692021
| 23> H     -0.353726    -1.515689     1.363915
| 24> H     -0.474225     0.228533     0.980749
| 25> H     -0.819140    -0.472995    -1.519707
| 26> H     -0.998802    -2.141727    -0.904886
| 27> H     -3.096678    -1.692837     0.126414
| 28> H     -4.721320     1.302473     0.785373
| 29> H     -5.011388    -0.450572     0.505130
| 30> H     -5.244915     0.722027    -0.843891
| 31> H     -2.205106     1.383293    -2.002271
| 32> H     -3.178451     2.448621    -0.934836
| 33> H     -1.597837     1.828447    -0.352258
| 34> H      2.099002    -0.857701     2.219740
| 35> H      1.666636     0.799013     1.709365
| 36> H      4.149254    -0.799588     0.845124
| 37> H      4.092748     0.642780     1.889319
| 38> H      3.495406     2.895705    -1.064613
| 39> *
| 40>
| 41>                          ****END OF INPUT****
 Total Charge           Charge          ....    0
 Multiplicity           Mult            ....    1
 Number of Electrons    NEL             ....   76
Dispersion correction           -0.034875664
FINAL SINGLE POINT ENERGY      -106.834473703913
Dispersion correction             ... done (  0.1 sec)
Dispersion correction           -0.035442329
FINAL SINGLE POINT ENERGY      -106.857064115151
Dispersion correction             ... done (  0.1 sec)
Dispersion correction           -0.035489100
FINAL SINGLE POINT ENERGY      -106.859480901286
Dispersion correction             ... done (  0.1 sec)
FINAL SINGLE POINT ENERGY      -106.854067694922
FINAL SINGLE POINT ENERGY      -106.860219942402
FINAL SINGLE POINT ENERGY      -106.860484039595
FINAL SINGLE POINT ENERGY      -106.860598180424
FINAL SINGLE POINT ENERGY      -106.860743122293
FINAL SINGLE POINT ENERGY      -106.860913090949
FINAL SINGLE POINT ENERGY      -106.861016450887
FINAL SINGLE POINT ENERGY      -106.862119561180
FINAL SINGLE POINT ENERGY      -106.862261247094
FINAL SINGLE POINT ENERGY      -106.862315999730
FINAL SINGLE POINT ENERGY      -106.862367231434
FINAL SINGLE POINT ENERGY      -106.862396397360
FINAL SINGLE POINT ENERGY      -106.862412412353
FINAL SINGLE POINT ENERGY      -106.862422511907
Dispersion correction             ... done (  0.1 sec)
Dispersion correction           -0.034874191
FINAL SINGLE POINT ENERGY      -106.862427276515
Dispersion correction             ... done (  0.1 sec)
Dispersion correction           -0.034871597
FINAL SINGLE POINT ENERGY      -106.862428772356
Dispersion correction             ... done (  0.1 sec)
                    ***********************HURRAY********************

CARTESIAN COORDINATES (ANGSTROEM)
---------------------------------
  C      1.802197   -1.973187   -0.266520
  C      1.369192   -0.587200    0.183188
  C     -0.109815   -0.537243    0.551646
  C     -1.068089   -0.771976   -0.608934
  C     -2.497837   -0.682363   -0.180898
  C     -3.378971    0.275075   -0.454833
  C     -4.779603    0.205024    0.072018
  C     -3.093323    1.486684   -1.286141
  C      2.193911   -0.088645    1.365586
  C      3.684960   -0.012332    1.138515
  O      4.014444    0.780237   -0.013721
  C      4.053113    2.094704    0.145670
  O      3.843504    2.686477    1.164136
  H      1.200882   -2.329598   -1.100355
  H      2.838586   -1.983875   -0.600138
  H      1.701894   -2.694015    0.547914
  H      1.527452    0.104078   -0.650482
  H     -0.309350   -1.268475    1.341870
  H     -0.334243    0.440614    0.984074
  H     -0.848734   -0.061118   -1.405224
  H     -0.900335   -1.763733   -1.032959
  H     -2.835872   -1.500330    0.449643
  H     -5.004121    1.073778    0.693169
  H     -4.942499   -0.691054    0.666904
  H     -5.501402    0.207027   -0.746648
  H     -3.740053    1.506999   -2.165070
  H     -3.309831    2.392123   -0.716858
  H     -2.063383    1.543979   -1.623797
  H      2.036912   -0.750668    2.222312
  H      1.838026    0.896515    1.668686
  H      4.116732   -0.986422    0.928209
  H      4.181269    0.413717    2.007844
  H      4.314389    2.575203   -0.803255

 Multiplicity           Mult            ....    1
 Number of Electrons    NEL             ....   76
 Basis Dimension        Dim             ....  269

ORBITAL ENERGIES
----------------

  NO   OCC          E(Eh)            E(eV)
   0   2.0000      -1.247603       -33.9490
   1   2.0000      -1.153298       -31.3828
   2   2.0000      -0.974996       -26.5310
   3   2.0000      -0.954739       -25.9798
   4   2.0000      -0.911834       -24.8123
   5   2.0000      -0.874689       -23.8015
   6   2.0000      -0.827212       -22.5096
   7   2.0000      -0.820041       -22.3144
   8   2.0000      -0.803097       -21.8534
   9   2.0000      -0.749989       -20.4082
  10   2.0000      -0.710961       -19.3462
  11   2.0000      -0.685534       -18.6543
  12   2.0000      -0.658196       -17.9104
  13   2.0000      -0.635994       -17.3063
  14   2.0000      -0.614700       -16.7268
  15   2.0000      -0.595516       -16.2048
  16   2.0000      -0.592478       -16.1222
  17   2.0000      -0.584521       -15.9056
  18   2.0000      -0.569875       -15.5071
  19   2.0000      -0.551019       -14.9940
  20   2.0000      -0.548414       -14.9231
  21   2.0000      -0.530014       -14.4224
  22   2.0000      -0.526309       -14.3216
  23   2.0000      -0.513987       -13.9863
  24   2.0000      -0.499467       -13.5912
  25   2.0000      -0.493791       -13.4367
  26   2.0000      -0.484127       -13.1738
  27   2.0000      -0.478107       -13.0099
  28   2.0000      -0.472330       -12.8527
  29   2.0000      -0.468747       -12.7553
  30   2.0000      -0.458236       -12.4692
  31   2.0000      -0.442147       -12.0314
  32   2.0000      -0.431031       -11.7290
  33   2.0000      -0.426504       -11.6058
  34   2.0000      -0.424056       -11.5391
  35   2.0000      -0.412472       -11.2239
  36   2.0000      -0.400495       -10.8980
  37   2.0000      -0.331399        -9.0178
  38   0.0000       0.082025         2.2320
  39   0.0000       0.085944         2.3386
  40   0.0000       0.093048         2.5320
  41   0.0000       0.095366         2.5950
  42   0.0000       0.099741         2.7141

MULLIKEN ATOMIC CHARGES
-----------------------
   0 C :   -0.036896
   1 C :   -0.089810
   2 C :   -0.046371
   3 C :   -0.057171
   4 C :   -0.023338
   5 C :   -0.071045
   6 C :   -0.049637
   7 C :   -0.050599
   8 C :   -0.038229
   9 C :    0.106296
  10 O :   -0.261696
  11 C :    0.296913
  12 O :   -0.328156
  13 H :    0.025339
  14 H :    0.029576
  15 H :    0.027108
  16 H :    0.040372
  17 H :    0.026668
  18 H :    0.034652
  19 H :    0.017000
  20 H :    0.042680
  21 H :    0.006077
  22 H :    0.034838
  23 H :    0.025303
  24 H :    0.034504
  25 H :    0.040471
  26 H :    0.037672
  27 H :    0.018788
  28 H :    0.036601
  29 H :    0.052062
  30 H :    0.042886
  31 H :    0.056041
  32 H :    0.021100
Sum of atomic charges:   -0.0000000

LOEWDIN ATOMIC CHARGES
----------------------
   0 C :   -0.105295
   1 C :   -0.075184
   2 C :   -0.073886
   3 C :   -0.087005
   4 C :   -0.055506
   5 C :   -0.055617
   6 C :   -0.107960
   7 C :   -0.106012
   8 C :   -0.073981
   9 C :   -0.021415
  10 O :   -0.009510
  11 C :   -0.030433
  12 O :   -0.138135
  13 H :    0.042952
  14 H :    0.042139
  15 H :    0.042704
  16 H :    0.043943
  17 H :    0.043510
  18 H :    0.048004
  19 H :    0.040513
  20 H :    0.044509
  21 H :    0.037604
  22 H :    0.047568
  23 H :    0.048759
  24 H :    0.047911
  25 H :    0.050264
  26 H :    0.050471
  27 H :    0.042816
  28 H :    0.054750
  29 H :    0.052231
  30 H :    0.052658
  31 H :    0.053773
  32 H :    0.052859

  Mayer bond orders larger than 0.100000
B(  0-C ,  1-C ) :   0.9913 B(  0-C , 13-H ) :   0.9966 B(  0-C , 14-H ) :   0.9951
B(  0-C , 15-H ) :   0.9882 B(  1-C ,  2-C ) :   0.9976 B(  1-C ,  8-C ) :   0.9825
B(  1-C , 16-H ) :   0.9896 B(  2-C ,  3-C ) :   0.9697 B(  2-C , 17-H ) :   0.9943
B(  2-C , 18-H ) :   0.9966 B(  3-C ,  4-C ) :   1.0323 B(  3-C , 19-H ) :   0.9965
B(  3-C , 20-H ) :   0.9842 B(  4-C ,  5-C ) :   1.8908 B(  4-C , 21-H ) :   0.9943
B(  5-C ,  6-C ) :   1.0308 B(  5-C ,  7-C ) :   1.0348 B(  6-C , 22-H ) :   0.9799
B(  6-C , 23-H ) :   0.9925 B(  6-C , 24-H ) :   0.9800 B(  7-C , 25-H ) :   0.9771
B(  7-C , 26-H ) :   0.9770 B(  7-C , 27-H ) :   0.9913 B(  8-C ,  9-C ) :   0.9980
B(  8-C , 28-H ) :   0.9871 B(  8-C , 29-H ) :   0.9916 B(  9-C , 10-O ) :   0.8644
B(  9-C , 30-H ) :   1.0107 B(  9-C , 31-H ) :   1.0007 B( 10-O , 11-C ) :   1.1712
B( 11-C , 12-O ) :   1.9251 B( 11-C , 32-H ) :   1.0309

Dispersion correction           -0.034870341
FINAL SINGLE POINT ENERGY      -106.862429454032

DIPOLE MOMENT
-------------

Method             : SCF
Type of density    : Electron Density
Multiplicity       :   1
Irrep              :   0
Energy             :  -106.8275591133225930 Eh
Relativity type    :
Basis              : AO
                                X                 Y                 Z
Electronic contribution:     12.102830461       5.385202534       1.411893467
Nuclear contribution   :    -12.258794124      -6.028282528      -1.753487241
                        -----------------------------------------
Total Dipole Moment    :     -0.155963663      -0.643079994      -0.341593774
                        -----------------------------------------
Magnitude (a.u.)       :      0.744689767
Magnitude (Debye)      :      1.892850961

VIBRATIONAL FREQUENCIES
-----------------------

Scaling factor for frequencies =  1.000000000  (already applied!)

     0:       0.00 cm**-1
     1:       0.00 cm**-1
     2:       0.00 cm**-1
     3:       0.00 cm**-1
     4:       0.00 cm**-1
     5:       0.00 cm**-1
     6:      15.43 cm**-1
     7:      19.45 cm**-1
     8:      38.71 cm**-1
     9:      54.27 cm**-1
    10:      70.12 cm**-1
    11:      91.55 cm**-1
    12:     123.37 cm**-1
    13:     132.82 cm**-1
    14:     169.20 cm**-1
    15:     190.71 cm**-1
    16:     228.34 cm**-1
    17:     254.75 cm**-1
    18:     278.18 cm**-1
    19:     299.24 cm**-1
    20:     314.09 cm**-1
    21:     372.84 cm**-1
    22:     393.11 cm**-1
    23:     404.44 cm**-1
    24:     443.94 cm**-1
    25:     449.14 cm**-1
    26:     494.12 cm**-1
    27:     558.04 cm**-1
    28:     583.79 cm**-1
    29:     766.22 cm**-1
    30:     789.57 cm**-1
    31:     814.15 cm**-1
    32:     832.83 cm**-1
    33:     869.84 cm**-1
    34:     883.10 cm**-1
    35:     951.27 cm**-1
    36:     967.38 cm**-1
    37:     981.20 cm**-1
    38:     985.84 cm**-1
    39:    1033.78 cm**-1
    40:    1046.16 cm**-1
    41:    1052.08 cm**-1
    42:    1068.64 cm**-1
    43:    1069.02 cm**-1
    44:    1100.62 cm**-1
    45:    1128.84 cm**-1
    46:    1135.58 cm**-1
    47:    1170.77 cm**-1
    48:    1182.47 cm**-1
    49:    1204.14 cm**-1
    50:    1224.87 cm**-1
    51:    1259.57 cm**-1
    52:    1279.00 cm**-1
    53:    1296.84 cm**-1
    54:    1319.74 cm**-1
    55:    1343.62 cm**-1
    56:    1354.18 cm**-1
    57:    1370.30 cm**-1
    58:    1407.58 cm**-1
    59:    1413.65 cm**-1
    60:    1427.30 cm**-1
    61:    1437.28 cm**-1
    62:    1446.74 cm**-1
    63:    1450.52 cm**-1
    64:    1452.08 cm**-1
    65:    1459.39 cm**-1
    66:    1460.99 cm**-1
    67:    1501.89 cm**-1
    68:    1503.75 cm**-1
    69:    1509.51 cm**-1
    70:    1517.77 cm**-1
    71:    1522.22 cm**-1
    72:    1525.19 cm**-1
    73:    1527.25 cm**-1
    74:    1528.30 cm**-1
    75:    1536.73 cm**-1
    76:    1548.01 cm**-1
    77:    1808.80 cm**-1
    78:    1869.19 cm**-1
    79:    3076.85 cm**-1
    80:    3087.64 cm**-1
    81:    3093.73 cm**-1
    82:    3096.01 cm**-1
    83:    3099.46 cm**-1
    84:    3099.75 cm**-1
    85:    3110.65 cm**-1
    86:    3132.89 cm**-1
    87:    3141.83 cm**-1
    88:    3151.08 cm**-1
    89:    3164.10 cm**-1
    90:    3167.16 cm**-1
    91:    3168.74 cm**-1
    92:    3169.84 cm**-1
    93:    3185.76 cm**-1
    94:    3194.45 cm**-1
    95:    3202.04 cm**-1
    96:    3206.61 cm**-1
    97:    3221.64 cm**-1
    98:    3227.97 cm**-1

IR SPECTRUM
-----------

 Mode   freq       eps      Int      T**2         TX        TY        TZ
       cm**-1   L/(mol*cm) km/mol    a.u.
----------------------------------------------------------------------------
  6:     15.43   0.000107    0.54  0.002164  (-0.017607  0.002196 -0.043000)
  7:     19.45   0.000048    0.24  0.000764  ( 0.015461  0.008645 -0.021228)
  8:     38.71   0.000298    1.50  0.002400  ( 0.044736 -0.004832  0.019385)
  9:     54.27   0.000019    0.09  0.000107  ( 0.002857  0.000791 -0.009895)
 10:     70.12   0.000125    0.63  0.000556  (-0.019597 -0.005974 -0.011676)
 11:     91.55   0.000105    0.53  0.000359  (-0.016695 -0.004841  0.007549)
 12:    123.37   0.000080    0.40  0.000202  ( 0.013067  0.000225 -0.005600)
 13:    132.82   0.000079    0.40  0.000185  ( 0.009910  0.007906  0.004968)
 14:    169.20   0.000346    1.75  0.000639  (-0.000601  0.025227 -0.001314)
 15:    190.71   0.000287    1.45  0.000469  ( 0.015151  0.000992  0.015444)
 16:    228.34   0.000505    2.55  0.000690  (-0.024977 -0.003038 -0.007558)
 17:    254.75   0.000479    2.42  0.000586  (-0.011858  0.019757 -0.007446)
 18:    278.18   0.000291    1.47  0.000327  (-0.010529 -0.013676 -0.005384)
 19:    299.24   0.003032   15.32  0.003162  ( 0.055402  0.009210  0.002715)
 20:    314.09   0.000258    1.30  0.000257  ( 0.012466  0.008967  0.004556)
 21:    372.84   0.002371   11.98  0.001984  ( 0.012609  0.042365  0.005514)
 22:    393.11   0.000401    2.03  0.000319  (-0.012307  0.006300 -0.011290)
 23:    404.44   0.000081    0.41  0.000062  (-0.003006  0.001016 -0.007224)
 24:    443.94   0.000125    0.63  0.000088  (-0.001287 -0.000736 -0.009249)
 25:    449.14   0.001407    7.11  0.000977  (-0.027530 -0.001619 -0.014728)
 26:    494.12   0.000625    3.16  0.000395  (-0.014805  0.010683  0.007842)
 27:    558.04   0.000520    2.63  0.000291  (-0.009485 -0.013439  0.004483)
 28:    583.79   0.001775    8.97  0.000949  ( 0.028303 -0.003663  0.011589)
 29:    766.22   0.000416    2.10  0.000170  (-0.004665  0.012033  0.001739)
 30:    789.57   0.001573    7.95  0.000622  ( 0.013616 -0.000214 -0.020883)
 31:    814.15   0.000610    3.08  0.000234  ( 0.000782 -0.015226  0.001211)
 32:    832.83   0.000567    2.86  0.000212  ( 0.009531  0.000217  0.011017)
 33:    869.84   0.003123   15.78  0.001120  ( 0.000355 -0.005867 -0.032954)
 34:    883.10   0.001453    7.34  0.000513  ( 0.008558  0.017778  0.011138)
 35:    951.27   0.000518    2.62  0.000170  ( 0.009453 -0.002299  0.008684)
 36:    967.38   0.001740    8.79  0.000561  ( 0.018496  0.010214 -0.010718)
 37:    981.20   0.000353    1.78  0.000112  ( 0.004754  0.004109 -0.008523)
 38:    985.84   0.000176    0.89  0.000056  ( 0.006615  0.001041 -0.003315)
 39:   1033.78   0.000692    3.50  0.000209  (-0.005462 -0.008111 -0.010641)
 40:   1046.16   0.000317    1.60  0.000094  ( 0.005131  0.008241 -0.000503)
 41:   1052.08   0.000836    4.23  0.000248  (-0.004233 -0.001507 -0.015093)
 42:   1068.64   0.000364    1.84  0.000106  ( 0.005314  0.000718 -0.008803)
 43:   1069.02   0.000291    1.47  0.000085  ( 0.001633 -0.002027 -0.008835)
 44:   1100.62   0.001034    5.23  0.000293  (-0.007504  0.007669  0.013348)
 45:   1128.84   0.000105    0.53  0.000029  (-0.003543 -0.000713 -0.003992)
 46:   1135.58   0.001114    5.63  0.000306  ( 0.014105 -0.007831  0.006778)
 47:   1170.77   0.001211    6.12  0.000323  (-0.014858  0.009740  0.002654)
 48:   1182.47   0.000768    3.88  0.000203  (-0.013346 -0.000541 -0.004923)
 49:   1204.14   0.003052   15.42  0.000791  (-0.024401 -0.012299  0.006651)
 50:   1224.87   0.000159    0.80  0.000040  (-0.004425  0.004394 -0.001260)
 51:   1259.57   0.054972  277.80  0.013619  ( 0.034906  0.107966 -0.027285)
 52:   1279.00   0.003527   17.82  0.000860  ( 0.007396 -0.027948  0.004966)
 53:   1296.84   0.000438    2.21  0.000105  (-0.002489  0.008977 -0.004317)
 54:   1319.74   0.010230   51.70  0.002419  ( 0.015791  0.045495 -0.009989)
 55:   1343.62   0.016418   82.97  0.003813  (-0.021855 -0.057753 -0.000438)
 56:   1354.18   0.001140    5.76  0.000263  ( 0.011109  0.011231  0.003612)
 57:   1370.30   0.000855    4.32  0.000195  ( 0.004137  0.011983  0.005832)
 58:   1407.58   0.000846    4.28  0.000188  ( 0.011551 -0.006340  0.003745)
 59:   1413.65   0.000369    1.86  0.000081  ( 0.003061  0.007744 -0.003477)
 60:   1427.30   0.000389    1.97  0.000085  (-0.005865 -0.002437  0.006685)
 61:   1437.28   0.000054    0.27  0.000012  ( 0.002337 -0.000583  0.002429)
 62:   1446.74   0.000704    3.56  0.000152  ( 0.003173 -0.011005 -0.004553)
 63:   1450.52   0.000861    4.35  0.000185  (-0.009890 -0.004590  0.008140)
 64:   1452.08   0.001229    6.21  0.000264  (-0.001031  0.012580  0.010238)
 65:   1459.39   0.002458   12.42  0.000526  ( 0.005793  0.016330 -0.015011)
 66:   1460.99   0.002559   12.93  0.000547  ( 0.014780 -0.018111  0.000416)
 67:   1501.89   0.000161    0.81  0.000033  (-0.003254 -0.002711 -0.003933)
 68:   1503.75   0.000046    0.23  0.000010  (-0.000519 -0.000984 -0.002882)
 69:   1509.51   0.001061    5.36  0.000219  (-0.013002 -0.002038  0.006789)
 70:   1517.77   0.000939    4.75  0.000193  (-0.009957  0.008359 -0.004908)
 71:   1522.22   0.004051   20.47  0.000830  ( 0.007640  0.013209  0.024445)
 72:   1525.19   0.001715    8.67  0.000351  ( 0.003687  0.006416  0.017208)
 73:   1527.25   0.001148    5.80  0.000235  ( 0.003846  0.011290 -0.009613)
 74:   1528.30   0.002714   13.72  0.000554  (-0.009113  0.008917 -0.019790)
 75:   1536.73   0.001646    8.32  0.000334  ( 0.012308 -0.000673 -0.013500)
 76:   1548.01   0.002666   13.47  0.000537  ( 0.017539 -0.003870 -0.014660)
 77:   1808.80   0.000659    3.33  0.000114  (-0.006737  0.007468 -0.003535)
 78:   1869.19   0.070042  353.96  0.011694  ( 0.002817  0.089531  0.060579)
 79:   3076.85   0.002820   14.25  0.000286  ( 0.004280 -0.001494 -0.016293)
 80:   3087.64   0.001077    5.44  0.000109  ( 0.001164  0.006790 -0.007835)
 81:   3093.73   0.006916   34.95  0.000698  ( 0.025359 -0.000036 -0.007386)
 82:   3096.01   0.003393   17.15  0.000342  ( 0.005982 -0.009034 -0.014987)
 83:   3099.46   0.008111   40.99  0.000817  ( 0.002654 -0.021912  0.018151)
 84:   3099.75   0.007240   36.59  0.000729  ( 0.016988 -0.020782  0.002899)
 85:   3110.65   0.005306   26.82  0.000532  (-0.007401  0.006599  0.020833)
 86:   3132.89   0.002709   13.69  0.000270  (-0.002974  0.015903  0.002847)
 87:   3141.83   0.008144   41.16  0.000809  ( 0.007917  0.012156 -0.024464)
 88:   3151.08   0.002822   14.26  0.000279  (-0.012094  0.007867 -0.008447)
 89:   3164.10   0.001628    8.23  0.000161  ( 0.006818 -0.010426  0.002332)
 90:   3167.16   0.005523   27.91  0.000544  (-0.005339  0.019670 -0.011350)
 91:   3168.74   0.000125    0.63  0.000012  (-0.001255  0.002385 -0.002248)
 92:   3169.84   0.004361   22.04  0.000429  (-0.005063 -0.011968 -0.016139)
 93:   3185.76   0.004271   21.58  0.000418  (-0.011164 -0.004141  0.016630)
 94:   3194.45   0.003140   15.87  0.000307  ( 0.007394  0.012842 -0.009338)
 95:   3202.04   0.004317   21.82  0.000421  ( 0.016873  0.005935  0.010042)
 96:   3206.61   0.004273   21.60  0.000416  ( 0.002129  0.017497 -0.010257)
 97:   3221.64   0.001369    6.92  0.000133  (-0.003688  0.010149  0.004005)
 98:   3227.97   0.003214   16.24  0.000311  ( 0.016285  0.002796 -0.006139)

--------------------------
THERMOCHEMISTRY AT 298.15K
--------------------------

Temperature         ...   298.15 K
Pressure            ...     1.00 atm
Total Mass          ...   184.28 AMU
Quasi RRHO          ...     True
Cut-Off Frequency   ...     1.00 cm^-1

Throughout the following assumptions are being made:
  (1) The electronic state is orbitally nondegenerate
  (2) There are no thermally accessible electronically excited states
  (3) Hindered rotations indicated by low frequency modes are not
      treated as such but are treated as vibrations and this may
      cause some error
  (4) All equations used are the standard statistical mechanics
      equations for an ideal gas
  (5) All vibrations are strictly harmonic

freq.      15.43  E(vib)   ...       0.57
freq.      19.45  E(vib)   ...       0.57
freq.      38.71  E(vib)   ...       0.54
freq.      54.27  E(vib)   ...       0.52
freq.      70.12  E(vib)   ...       0.50
freq.      91.55  E(vib)   ...       0.47
freq.     123.37  E(vib)   ...       0.43
freq.     132.82  E(vib)   ...       0.42
freq.     169.20  E(vib)   ...       0.38
freq.     190.71  E(vib)   ...       0.36
freq.     228.34  E(vib)   ...       0.32
freq.     254.75  E(vib)   ...       0.30
freq.     278.18  E(vib)   ...       0.28
freq.     299.24  E(vib)   ...       0.26
freq.     314.09  E(vib)   ...       0.25
freq.     372.84  E(vib)   ...       0.21
freq.     393.11  E(vib)   ...       0.20
freq.     404.44  E(vib)   ...       0.19
freq.     443.94  E(vib)   ...       0.17
freq.     449.14  E(vib)   ...       0.17
freq.     494.12  E(vib)   ...       0.14
freq.     558.04  E(vib)   ...       0.12
freq.     583.79  E(vib)   ...       0.11
freq.     766.22  E(vib)   ...       0.06
freq.     789.57  E(vib)   ...       0.05
freq.     814.15  E(vib)   ...       0.05
freq.     832.83  E(vib)   ...       0.04
freq.     869.84  E(vib)   ...       0.04
freq.     883.10  E(vib)   ...       0.04
freq.     951.27  E(vib)   ...       0.03
freq.     967.38  E(vib)   ...       0.03
freq.     981.20  E(vib)   ...       0.02
freq.     985.84  E(vib)   ...       0.02
freq.    1033.78  E(vib)   ...       0.02
freq.    1046.16  E(vib)   ...       0.02
freq.    1052.08  E(vib)   ...       0.02
freq.    1068.64  E(vib)   ...       0.02
freq.    1069.02  E(vib)   ...       0.02
freq.    1100.62  E(vib)   ...       0.02
freq.    1128.84  E(vib)   ...       0.01
freq.    1135.58  E(vib)   ...       0.01
freq.    1170.77  E(vib)   ...       0.01
freq.    1182.47  E(vib)   ...       0.01
freq.    1204.14  E(vib)   ...       0.01
freq.    1224.87  E(vib)   ...       0.01
freq.    1259.57  E(vib)   ...       0.01
freq.    1279.00  E(vib)   ...       0.01
freq.    1296.84  E(vib)   ...       0.01
freq.    1319.74  E(vib)   ...       0.01
freq.    1343.62  E(vib)   ...       0.01
freq.    1354.18  E(vib)   ...       0.01
freq.    1370.30  E(vib)   ...       0.01
freq.    1407.58  E(vib)   ...       0.00
freq.    1413.65  E(vib)   ...       0.00
freq.    1427.30  E(vib)   ...       0.00
freq.    1437.28  E(vib)   ...       0.00
freq.    1446.74  E(vib)   ...       0.00
freq.    1450.52  E(vib)   ...       0.00
freq.    1452.08  E(vib)   ...       0.00
freq.    1459.39  E(vib)   ...       0.00
freq.    1460.99  E(vib)   ...       0.00
freq.    1501.89  E(vib)   ...       0.00
freq.    1503.75  E(vib)   ...       0.00
freq.    1509.51  E(vib)   ...       0.00
freq.    1517.77  E(vib)   ...       0.00
freq.    1522.22  E(vib)   ...       0.00
freq.    1525.19  E(vib)   ...       0.00
freq.    1527.25  E(vib)   ...       0.00
freq.    1528.30  E(vib)   ...       0.00
freq.    1536.73  E(vib)   ...       0.00
freq.    1548.01  E(vib)   ...       0.00
freq.    1808.80  E(vib)   ...       0.00
freq.    1869.19  E(vib)   ...       0.00
freq.    3076.85  E(vib)   ...       0.00
freq.    3087.64  E(vib)   ...       0.00
freq.    3093.73  E(vib)   ...       0.00
freq.    3096.01  E(vib)   ...       0.00
freq.    3099.46  E(vib)   ...       0.00
freq.    3099.75  E(vib)   ...       0.00
freq.    3110.65  E(vib)   ...       0.00
freq.    3132.89  E(vib)   ...       0.00
freq.    3141.83  E(vib)   ...       0.00
freq.    3151.08  E(vib)   ...       0.00
freq.    3164.10  E(vib)   ...       0.00
freq.    3167.16  E(vib)   ...       0.00
freq.    3168.74  E(vib)   ...       0.00
freq.    3169.84  E(vib)   ...       0.00
freq.    3185.76  E(vib)   ...       0.00
freq.    3194.45  E(vib)   ...       0.00
freq.    3202.04  E(vib)   ...       0.00
freq.    3206.61  E(vib)   ...       0.00
freq.    3221.64  E(vib)   ...       0.00
freq.    3227.97  E(vib)   ...       0.00

------------
INNER ENERGY
------------

The inner energy is: U= E(el) + E(ZPE) + E(vib) + E(rot) + E(trans)
    E(el)   - is the total energy from the electronic structure calculation
              = E(kin-el) + E(nuc-el) + E(el-el) + E(nuc-nuc)
    E(ZPE)  - the the zero temperature vibrational energy from the frequency calculation
    E(vib)  - the the finite temperature correction to E(ZPE) due to population
              of excited vibrational states
    E(rot)  - is the rotational thermal energy
    E(trans)- is the translational thermal energy

Summary of contributions to the inner energy U:
Electronic energy                ...   -106.86242945 Eh
Zero point energy                ...      0.30143249 Eh     189.15 kcal/mol
Thermal vibrational correction   ...      0.01299524 Eh       8.15 kcal/mol
Thermal rotational correction    ...      0.00141627 Eh       0.89 kcal/mol
Thermal translational correction ...      0.00141627 Eh       0.89 kcal/mol
-----------------------------------------------------------------------
Total thermal energy                   -106.54516918 Eh

Summary of corrections to the electronic energy:
(perhaps to be used in another calculation)
Total thermal correction                  0.01582779 Eh       9.93 kcal/mol
Non-thermal (ZPE) correction              0.30143249 Eh     189.15 kcal/mol
-----------------------------------------------------------------------
Total correction                          0.31726027 Eh     199.08 kcal/mol

--------
ENTHALPY
--------

The enthalpy is H = U + kB*T
                kB is Boltzmann's constant
Total thermal energy              ...   -106.54516918 Eh
Thermal Enthalpy correction       ...      0.00094421 Eh       0.59 kcal/mol
-----------------------------------------------------------------------
Total Enthalpy                    ...   -106.54422497 Eh

Note: Only C1 symmetry has been detected, increase convergence thresholds
      if your molecule has a higher symmetry. Symmetry factor of 1.0 is
      used for the rotational entropy correction.

Rotational constants in cm-1:     0.045662     0.009002     0.008116

                             ****ORCA TERMINATED NORMALLY****
TOTAL RUN TIME: 0 days 0 hours 33 minutes 41 seconds 995 msec
