                         Program Version 6.0.1  -  RELEASE   -
|  1> ! wB97X-3c OPT FREQ TightSCF
|  2> %pal
|  3>   nprocs 40
|  4> end
|  5> * xyz 0 1
|  6> C      2.940449    -2.053612     0.597088
|  7> C      1.642385    -1.299751     0.518587
|  8> C      1.546506    -0.135539    -0.266727
|  9> C      0.321124     0.557998    -0.328095
| 10> C     -0.801743     0.101688     0.383438
| 11> C     -0.687690    -1.062315     1.162281
| 12> C      0.521593    -1.754852     1.228547
| 13> C     -2.112446     0.863307     0.303886
| 14> C     -3.219115    -0.003289    -0.308776
| 15> C     -2.526925     1.395739     1.680760
| 16> O      2.682340     0.301561    -0.969266
| 17> C      2.725830     1.458599    -1.798031
| 18> H      3.237483    -2.392997    -0.417584
| 19> H      2.857797    -2.946042     1.253413
| 20> H      3.732798    -1.391874     1.006055
| 21> H      0.235097     1.453694    -0.928014
| 22> H     -1.535320    -1.437411     1.720946
| 23> H      0.581486    -2.649115     1.836551
| 24> H     -1.988492     1.747348    -0.360892
| 25> H     -4.141759     0.600047    -0.446438
| 26> H     -2.899810    -0.380632    -1.303842
| 27> H     -3.458638    -0.869227     0.344136
| 28> H     -1.712589     2.018927     2.108540
| 29> H     -3.434748     2.029030     1.585686
| 30> H     -2.749509     0.564052     2.382378
| 31> H      2.498886     2.365976    -1.199412
| 32> H      3.744768     1.560580    -2.224245
| 33> H      2.000242     1.358110    -2.632661
| 34> *
| 35>
| 36>                          ****END OF INPUT****
 Total Charge           Charge          ....    0
 Multiplicity           Mult            ....    1
 Number of Electrons    NEL             ....   66
Dispersion correction           -0.033440513
FINAL SINGLE POINT ENERGY       -88.362160995106
Dispersion correction             ... done (  0.1 sec)
Dispersion correction           -0.034068565
FINAL SINGLE POINT ENERGY       -88.374084935924
Dispersion correction             ... done (  0.1 sec)
Dispersion correction           -0.034152926
FINAL SINGLE POINT ENERGY       -88.374639904779
Dispersion correction             ... done (  0.1 sec)
FINAL SINGLE POINT ENERGY       -88.374738346775
Dispersion correction             ... done (  0.1 sec)
Dispersion correction           -0.034134467
FINAL SINGLE POINT ENERGY       -88.374752571879
Dispersion correction             ... done (  0.1 sec)
Dispersion correction           -0.034132793
FINAL SINGLE POINT ENERGY       -88.374753909526
Dispersion correction             ... done (  0.1 sec)
                    ***********************HURRAY********************

CARTESIAN COORDINATES (ANGSTROEM)
---------------------------------
  C      2.958113   -2.029449    0.573291
  C      1.656051   -1.298024    0.513579
  C      1.534158   -0.141581   -0.258307
  C      0.333555    0.546153   -0.323669
  C     -0.781728    0.103193    0.377584
  C     -0.667004   -1.041883    1.144472
  C      0.538108   -1.723520    1.203910
  C     -2.081041    0.867811    0.291308
  C     -3.185945    0.024700   -0.330002
  C     -2.502085    1.411588    1.649539
  O      2.654875    0.241563   -0.919784
  C      2.607538    1.396318   -1.715339
  H      3.269443   -2.355473   -0.418296
  H      2.878370   -2.902978    1.215962
  H      3.750216   -1.387794    0.957127
  H      0.247478    1.439854   -0.923282
  H     -1.514857   -1.414268    1.702862
  H      0.612369   -2.618494    1.808450
  H     -1.907448    1.722173   -0.367378
  H     -4.097845    0.610335   -0.447408
  H     -2.890314   -0.348703   -1.309567
  H     -3.421972   -0.836240    0.295552
  H     -1.716961    2.027727    2.085752
  H     -3.403357    2.018063    1.559117
  H     -2.715141    0.602211    2.347926
  H      2.368691    2.279256   -1.120339
  H      3.598172    1.513136   -2.143967
  H      1.878562    1.294326   -2.520783

 Multiplicity           Mult            ....    1
 Number of Electrons    NEL             ....   66
 Basis Dimension        Dim             ....  236

ORBITAL ENERGIES
----------------

  NO   OCC          E(Eh)            E(eV)
   0   2.0000      -1.196781       -32.5661
   1   2.0000      -1.003570       -27.3085
   2   2.0000      -0.950986       -25.8776
   3   2.0000      -0.896501       -24.3950
   4   2.0000      -0.886068       -24.1111
   5   2.0000      -0.838150       -22.8072
   6   2.0000      -0.818335       -22.2680
   7   2.0000      -0.807289       -21.9674
   8   2.0000      -0.734113       -19.9762
   9   2.0000      -0.725810       -19.7503
  10   2.0000      -0.686541       -18.6817
  11   2.0000      -0.628831       -17.1114
  12   2.0000      -0.617418       -16.8008
  13   2.0000      -0.593894       -16.1607
  14   2.0000      -0.592156       -16.1134
  15   2.0000      -0.567524       -15.4431
  16   2.0000      -0.550877       -14.9901
  17   2.0000      -0.540383       -14.7046
  18   2.0000      -0.532997       -14.5036
  19   2.0000      -0.522695       -14.2233
  20   2.0000      -0.522317       -14.2130
  21   2.0000      -0.495291       -13.4775
  22   2.0000      -0.495029       -13.4704
  23   2.0000      -0.476856       -12.9759
  24   2.0000      -0.472095       -12.8464
  25   2.0000      -0.461062       -12.5461
  26   2.0000      -0.454611       -12.3706
  27   2.0000      -0.449146       -12.2219
  28   2.0000      -0.428845       -11.6695
  29   2.0000      -0.423829       -11.5330
  30   2.0000      -0.417143       -11.3510
  31   2.0000      -0.335357        -9.1255
  32   2.0000      -0.305566        -8.3149
  33   0.0000       0.077537         2.1099
  34   0.0000       0.084038         2.2868
  35   0.0000       0.087119         2.3706
  36   0.0000       0.096536         2.6269
  37   0.0000       0.097111         2.6425

MULLIKEN ATOMIC CHARGES
-----------------------
   0 C :   -0.044518
   1 C :   -0.087926
   2 C :    0.108302
   3 C :   -0.041264
   4 C :   -0.051373
   5 C :    0.011546
   6 C :    0.031607
   7 C :   -0.114275
   8 C :   -0.032231
   9 C :   -0.031927
  10 O :   -0.309090
  11 C :    0.098160
  12 H :    0.046889
  13 H :    0.025739
  14 H :    0.046704
  15 H :   -0.004654
  16 H :    0.004559
  17 H :    0.010526
  18 H :    0.031032
  19 H :    0.025497
  20 H :    0.038942
  21 H :    0.024760
  22 H :    0.038808
  23 H :    0.025374
  24 H :    0.024732
  25 H :    0.038094
  26 H :    0.047339
  27 H :    0.038647
Sum of atomic charges:    0.0000000

LOEWDIN ATOMIC CHARGES
----------------------
   0 C :   -0.103425
   1 C :   -0.044880
   2 C :   -0.026571
   3 C :   -0.055666
   4 C :   -0.027973
   5 C :   -0.056406
   6 C :   -0.038840
   7 C :   -0.081549
   8 C :   -0.103819
   9 C :   -0.103804
  10 O :   -0.028630
  11 C :   -0.062433
  12 H :    0.052147
  13 H :    0.047819
  14 H :    0.052136
  15 H :    0.035977
  16 H :    0.039382
  17 H :    0.046006
  18 H :    0.048101
  19 H :    0.043406
  20 H :    0.046784
  21 H :    0.042184
  22 H :    0.046766
  23 H :    0.043393
  24 H :    0.042141
  25 H :    0.045315
  26 H :    0.057097
  27 H :    0.045340

  Mayer bond orders larger than 0.100000
B(  0-C ,  1-C ) :   1.0382 B(  0-C , 12-H ) :   0.9723 B(  0-C , 13-H ) :   0.9914
B(  0-C , 14-H ) :   0.9724 B(  1-C ,  2-C ) :   1.4207 B(  1-C ,  6-C ) :   1.4612
B(  2-C ,  3-C ) :   1.4473 B(  2-C , 10-O ) :   1.0618 B(  3-C ,  4-C ) :   1.4503
B(  3-C , 15-H ) :   0.9751 B(  4-C ,  5-C ) :   1.4584 B(  4-C ,  7-C ) :   1.0170
B(  5-C ,  6-C ) :   1.4275 B(  5-C , 16-H ) :   0.9844 B(  6-C , 17-H ) :   0.9838
B(  7-C ,  8-C ) :   0.9925 B(  7-C ,  9-C ) :   0.9929 B(  7-C , 18-H ) :   0.9974
B(  8-C , 19-H ) :   0.9922 B(  8-C , 20-H ) :   0.9929 B(  8-C , 21-H ) :   0.9905
B(  9-C , 22-H ) :   0.9928 B(  9-C , 23-H ) :   0.9921 B(  9-C , 24-H ) :   0.9905
B( 10-O , 11-C ) :   0.9474 B( 11-C , 25-H ) :   0.9898 B( 11-C , 26-H ) :   1.0047
B( 11-C , 27-H ) :   0.9896

Dispersion correction           -0.034133457
FINAL SINGLE POINT ENERGY       -88.374754209548

DIPOLE MOMENT
-------------

Method             : SCF
Type of density    : Electron Density
Multiplicity       :   1
Irrep              :   0
Energy             :   -88.3406207525925282 Eh
Relativity type    :
Basis              : AO
                                X                 Y                 Z
Electronic contribution:      6.143547173      -4.129204743       0.781434328
Nuclear contribution   :     -6.237156004       4.594841473      -1.076802363
                        -----------------------------------------
Total Dipole Moment    :     -0.093608831       0.465636730      -0.295368035
                        -----------------------------------------
Magnitude (a.u.)       :      0.559305332
Magnitude (Debye)      :      1.421641173

VIBRATIONAL FREQUENCIES
-----------------------

Scaling factor for frequencies =  1.000000000  (already applied!)

     0:       0.00 cm**-1
     1:       0.00 cm**-1
     2:       0.00 cm**-1
     3:       0.00 cm**-1
     4:       0.00 cm**-1
     5:       0.00 cm**-1
     6:      30.50 cm**-1
     7:      82.75 cm**-1
     8:     102.16 cm**-1
     9:     148.86 cm**-1
    10:     167.10 cm**-1
    11:     187.33 cm**-1
    12:     233.64 cm**-1
    13:     235.17 cm**-1
    14:     245.73 cm**-1
    15:     265.50 cm**-1
    16:     293.33 cm**-1
    17:     297.24 cm**-1
    18:     349.08 cm**-1
    19:     392.22 cm**-1
    20:     450.58 cm**-1
    21:     483.18 cm**-1
    22:     508.39 cm**-1
    23:     545.18 cm**-1
    24:     607.11 cm**-1
    25:     677.48 cm**-1
    26:     722.06 cm**-1
    27:     756.75 cm**-1
    28:     802.24 cm**-1
    29:     851.27 cm**-1
    30:     890.21 cm**-1
    31:     899.84 cm**-1
    32:     953.05 cm**-1
    33:     983.30 cm**-1
    34:     984.96 cm**-1
    35:     994.91 cm**-1
    36:    1035.16 cm**-1
    37:    1088.25 cm**-1
    38:    1105.30 cm**-1
    39:    1117.29 cm**-1
    40:    1171.65 cm**-1
    41:    1186.69 cm**-1
    42:    1198.93 cm**-1
    43:    1204.68 cm**-1
    44:    1229.91 cm**-1
    45:    1256.12 cm**-1
    46:    1265.22 cm**-1
    47:    1319.31 cm**-1
    48:    1346.43 cm**-1
    49:    1370.73 cm**-1
    50:    1380.15 cm**-1
    51:    1397.06 cm**-1
    52:    1434.94 cm**-1
    53:    1449.54 cm**-1
    54:    1452.65 cm**-1
    55:    1489.16 cm**-1
    56:    1508.92 cm**-1
    57:    1514.91 cm**-1
    58:    1516.04 cm**-1
    59:    1518.60 cm**-1
    60:    1528.38 cm**-1
    61:    1529.58 cm**-1
    62:    1532.36 cm**-1
    63:    1537.77 cm**-1
    64:    1542.01 cm**-1
    65:    1599.36 cm**-1
    66:    1694.93 cm**-1
    67:    1729.56 cm**-1
    68:    3087.43 cm**-1
    69:    3098.01 cm**-1
    70:    3099.15 cm**-1
    71:    3102.23 cm**-1
    72:    3110.48 cm**-1
    73:    3172.91 cm**-1
    74:    3187.37 cm**-1
    75:    3190.75 cm**-1
    76:    3193.50 cm**-1
    77:    3196.21 cm**-1
    78:    3197.57 cm**-1
    79:    3213.83 cm**-1
    80:    3224.64 cm**-1
    81:    3238.94 cm**-1
    82:    3260.16 cm**-1
    83:    3272.67 cm**-1

IR SPECTRUM
-----------

 Mode   freq       eps      Int      T**2         TX        TY        TZ
       cm**-1   L/(mol*cm) km/mol    a.u.
----------------------------------------------------------------------------
  6:     30.50   0.000023    0.11  0.000232  ( 0.004169  0.008299  0.012065)
  7:     82.75   0.000254    1.28  0.000957  (-0.008450 -0.017020 -0.024416)
  8:    102.16   0.000910    4.60  0.002779  (-0.014379 -0.029144 -0.041503)
  9:    148.86   0.000086    0.43  0.000180  ( 0.003752  0.007344  0.010572)
 10:    167.10   0.000042    0.21  0.000079  (-0.008449  0.002577  0.001095)
 11:    187.33   0.000134    0.68  0.000224  ( 0.004179  0.008323  0.011713)
 12:    233.64   0.000004    0.02  0.000005  ( 0.001725  0.000402 -0.001416)
 13:    235.17   0.000307    1.55  0.000407  (-0.017182 -0.004858  0.009385)
 14:    245.73   0.000025    0.12  0.000031  ( 0.001420  0.003133  0.004418)
 15:    265.50   0.000076    0.38  0.000089  (-0.008592 -0.001175  0.003722)
 16:    293.33   0.000124    0.63  0.000132  (-0.007413 -0.005730  0.006640)
 17:    297.24   0.000001    0.00  0.000001  (-0.000315 -0.000560 -0.000675)
 18:    349.08   0.000200    1.01  0.000178  (-0.011873 -0.002216  0.005708)
 19:    392.22   0.000140    0.71  0.000111  ( 0.002968  0.005838  0.008263)
 20:    450.58   0.000089    0.45  0.000062  ( 0.004724  0.004243 -0.004648)
 21:    483.18   0.000783    3.96  0.000506  ( 0.006098  0.012384  0.017748)
 22:    508.39   0.000519    2.62  0.000319  (-0.016789 -0.000405  0.006062)
 23:    545.18   0.000695    3.51  0.000398  ( 0.018437 -0.007527 -0.001166)
 24:    607.11   0.000458    2.32  0.000236  ( 0.012604  0.004490 -0.007515)
 25:    677.48   0.002741   13.85  0.001262  (-0.009693 -0.019666 -0.027959)
 26:    722.06   0.000058    0.29  0.000025  ( 0.004327  0.000973 -0.002291)
 27:    756.75   0.000517    2.61  0.000213  ( 0.004009  0.008084  0.011483)
 28:    802.24   0.000884    4.47  0.000344  ( 0.017327  0.000782 -0.006545)
 29:    851.27   0.003611   18.25  0.001324  (-0.009958 -0.020067 -0.028666)
 30:    890.21   0.004264   21.55  0.001495  (-0.010722 -0.021367 -0.030388)
 31:    899.84   0.000948    4.79  0.000329  (-0.017383  0.001904  0.004804)
 32:    953.05   0.000218    1.10  0.000071  ( 0.002278  0.004628  0.006695)
 33:    983.30   0.002934   14.83  0.000931  ( 0.028675  0.000586 -0.010414)
 34:    984.96   0.000051    0.26  0.000016  ( 0.001072  0.002138  0.003226)
 35:    994.91   0.000037    0.19  0.000012  (-0.000853 -0.001920 -0.002695)
 36:   1035.16   0.005087   25.71  0.001534  ( 0.037310 -0.010528 -0.005552)
 37:   1088.25   0.000491    2.48  0.000141  (-0.003160 -0.006570 -0.009358)
 38:   1105.30   0.002297   11.61  0.000648  ( 0.017075 -0.017707  0.006587)
 39:   1117.29   0.004846   24.49  0.001353  (-0.009895 -0.027326  0.022557)
 40:   1171.65   0.000189    0.96  0.000050  ( 0.001870  0.003902  0.005623)
 41:   1186.69   0.006861   34.67  0.001804  ( 0.017230  0.028661 -0.026190)
 42:   1198.93   0.001577    7.97  0.000410  ( 0.003584  0.015743 -0.012236)
 43:   1204.68   0.000169    0.86  0.000044  (-0.001779 -0.003634 -0.005240)
 44:   1229.91   0.003553   17.96  0.000902  (-0.001970 -0.024188  0.017680)
 45:   1256.12   0.005232   26.44  0.001300  (-0.011328 -0.026001  0.022261)
 46:   1265.22   0.000251    1.27  0.000062  (-0.002010  0.006543 -0.003894)
 47:   1319.31   0.015594   78.80  0.003688  (-0.040249 -0.029345  0.034747)
 48:   1346.43   0.008020   40.53  0.001859  ( 0.036431  0.010847 -0.020346)
 49:   1370.73   0.017746   89.68  0.004040  ( 0.040580  0.032188 -0.036840)
 50:   1380.15   0.000089    0.45  0.000020  ( 0.001220  0.002482  0.003530)
 51:   1397.06   0.001284    6.49  0.000287  ( 0.006825 -0.013727  0.007197)
 52:   1434.94   0.002366   11.96  0.000515  ( 0.006070  0.012525  0.017914)
 53:   1449.54   0.000197    0.99  0.000042  (-0.003904  0.004812 -0.001998)
 54:   1452.65   0.000793    4.01  0.000170  ( 0.012566 -0.002168 -0.002790)
 55:   1489.16   0.009069   45.83  0.001901  ( 0.034080  0.015088 -0.022614)
 56:   1508.92   0.001904    9.62  0.000394  (-0.005511 -0.011042 -0.015537)
 57:   1514.91   0.000003    0.02  0.000001  ( 0.000278  0.000440  0.000637)
 58:   1516.04   0.000082    0.41  0.000017  ( 0.003708  0.000724 -0.001593)
 59:   1518.60   0.000757    3.82  0.000155  ( 0.003415  0.006694  0.009951)
 60:   1528.38   0.002211   11.17  0.000451  ( 0.006082  0.011781  0.016603)
 61:   1529.58   0.003588   18.13  0.000732  ( 0.013406  0.016996 -0.016232)
 62:   1532.36   0.001288    6.51  0.000262  (-0.002832 -0.012571  0.009814)
 63:   1537.77   0.006658   33.65  0.001351  (-0.030810 -0.009327  0.017744)
 64:   1542.01   0.010514   53.13  0.002128  ( 0.019241  0.030834 -0.028405)
 65:   1599.36   0.015808   79.89  0.003084  ( 0.048380  0.011275 -0.024832)
 66:   1694.93   0.009541   48.22  0.001757  ( 0.017492  0.028008 -0.025812)
 67:   1729.56   0.008200   41.44  0.001480  (-0.035111 -0.004188  0.015141)
 68:   3087.43   0.010001   50.54  0.001011  (-0.006785 -0.024296  0.019352)
 69:   3098.01   0.006106   30.86  0.000615  ( 0.006158  0.013672  0.019755)
 70:   3099.15   0.005307   26.82  0.000534  (-0.016238 -0.010704  0.012495)
 71:   3102.23   0.005539   27.99  0.000557  (-0.019243  0.013340 -0.002978)
 72:   3110.48   0.006578   33.24  0.000660  (-0.020932  0.014590 -0.002993)
 73:   3172.91   0.004911   24.82  0.000483  (-0.005976 -0.012131 -0.017323)
 74:   3187.37   0.000004    0.02  0.000000  (-0.000349  0.000170 -0.000482)
 75:   3190.75   0.009400   47.50  0.000919  (-0.019055  0.021883 -0.008796)
 76:   3193.50   0.001258    6.36  0.000123  ( 0.003113  0.006163  0.008676)
 77:   3196.21   0.002108   10.65  0.000206  (-0.004195 -0.008022 -0.011129)
 78:   3197.57   0.004050   20.47  0.000395  (-0.015849 -0.006375  0.010172)
 79:   3213.83   0.001610    8.13  0.000156  (-0.002437 -0.009588  0.007644)
 80:   3224.64   0.001993   10.07  0.000193  (-0.012534 -0.001934  0.005658)
 81:   3238.94   0.001981   10.01  0.000191  (-0.007952  0.010352 -0.004524)
 82:   3260.16   0.002552   12.90  0.000244  ( 0.008494  0.009117 -0.009435)
 83:   3272.67   0.000971    4.91  0.000093  (-0.001117 -0.007602  0.005792)

--------------------------
THERMOCHEMISTRY AT 298.15K
--------------------------

Temperature         ...   298.15 K
Pressure            ...     1.00 atm
Total Mass          ...   164.25 AMU
Quasi RRHO          ...     True
Cut-Off Frequency   ...     1.00 cm^-1

Throughout the following assumptions are being made:
  (1) The electronic state is orbitally nondegenerate
  (2) There are no thermally accessible electronically excited states
  (3) Hindered rotations indicated by low frequency modes are not
      treated as such but are treated as vibrations and this may
      cause some error
  (4) All equations used are the standard statistical mechanics
      equations for an ideal gas
  (5) All vibrations are strictly harmonic

freq.      30.50  E(vib)   ...       0.55
freq.      82.75  E(vib)   ...       0.48
freq.     102.16  E(vib)   ...       0.46
freq.     148.86  E(vib)   ...       0.40
freq.     167.10  E(vib)   ...       0.39
freq.     187.33  E(vib)   ...       0.36
freq.     233.64  E(vib)   ...       0.32
freq.     235.17  E(vib)   ...       0.32
freq.     245.73  E(vib)   ...       0.31
freq.     265.50  E(vib)   ...       0.29
freq.     293.33  E(vib)   ...       0.27
freq.     297.24  E(vib)   ...       0.27
freq.     349.08  E(vib)   ...       0.23
freq.     392.22  E(vib)   ...       0.20
freq.     450.58  E(vib)   ...       0.17
freq.     483.18  E(vib)   ...       0.15
freq.     508.39  E(vib)   ...       0.14
freq.     545.18  E(vib)   ...       0.12
freq.     607.11  E(vib)   ...       0.10
freq.     677.48  E(vib)   ...       0.08
freq.     722.06  E(vib)   ...       0.07
freq.     756.75  E(vib)   ...       0.06
freq.     802.24  E(vib)   ...       0.05
freq.     851.27  E(vib)   ...       0.04
freq.     890.21  E(vib)   ...       0.04
freq.     899.84  E(vib)   ...       0.03
freq.     953.05  E(vib)   ...       0.03
freq.     983.30  E(vib)   ...       0.02
freq.     984.96  E(vib)   ...       0.02
freq.     994.91  E(vib)   ...       0.02
freq.    1035.16  E(vib)   ...       0.02
freq.    1088.25  E(vib)   ...       0.02
freq.    1105.30  E(vib)   ...       0.02
freq.    1117.29  E(vib)   ...       0.01
freq.    1171.65  E(vib)   ...       0.01
freq.    1186.69  E(vib)   ...       0.01
freq.    1198.93  E(vib)   ...       0.01
freq.    1204.68  E(vib)   ...       0.01
freq.    1229.91  E(vib)   ...       0.01
freq.    1256.12  E(vib)   ...       0.01
freq.    1265.22  E(vib)   ...       0.01
freq.    1319.31  E(vib)   ...       0.01
freq.    1346.43  E(vib)   ...       0.01
freq.    1370.73  E(vib)   ...       0.01
freq.    1380.15  E(vib)   ...       0.01
freq.    1397.06  E(vib)   ...       0.00
freq.    1434.94  E(vib)   ...       0.00
freq.    1449.54  E(vib)   ...       0.00
freq.    1452.65  E(vib)   ...       0.00
freq.    1489.16  E(vib)   ...       0.00
freq.    1508.92  E(vib)   ...       0.00
freq.    1514.91  E(vib)   ...       0.00
freq.    1516.04  E(vib)   ...       0.00
freq.    1518.60  E(vib)   ...       0.00
freq.    1528.38  E(vib)   ...       0.00
freq.    1529.58  E(vib)   ...       0.00
freq.    1532.36  E(vib)   ...       0.00
freq.    1537.77  E(vib)   ...       0.00
freq.    1542.01  E(vib)   ...       0.00
freq.    1599.36  E(vib)   ...       0.00
freq.    1694.93  E(vib)   ...       0.00
freq.    1729.56  E(vib)   ...       0.00
freq.    3087.43  E(vib)   ...       0.00
freq.    3098.01  E(vib)   ...       0.00
freq.    3099.15  E(vib)   ...       0.00
freq.    3102.23  E(vib)   ...       0.00
freq.    3110.48  E(vib)   ...       0.00
freq.    3172.91  E(vib)   ...       0.00
freq.    3187.37  E(vib)   ...       0.00
freq.    3190.75  E(vib)   ...       0.00
freq.    3193.50  E(vib)   ...       0.00
freq.    3196.21  E(vib)   ...       0.00
freq.    3197.57  E(vib)   ...       0.00
freq.    3213.83  E(vib)   ...       0.00
freq.    3224.64  E(vib)   ...       0.00
freq.    3238.94  E(vib)   ...       0.00
freq.    3260.16  E(vib)   ...       0.00
freq.    3272.67  E(vib)   ...       0.00

------------
INNER ENERGY
------------

The inner energy is: U= E(el) + E(ZPE) + E(vib) + E(rot) + E(trans)
    E(el)   - is the total energy from the electronic structure calculation
              = E(kin-el) + E(nuc-el) + E(el-el) + E(nuc-nuc)
    E(ZPE)  - the the zero temperature vibrational energy from the frequency calculation
    E(vib)  - the the finite temperature correction to E(ZPE) due to population
              of excited vibrational states
    E(rot)  - is the rotational thermal energy
    E(trans)- is the translational thermal energy

Summary of contributions to the inner energy U:
Electronic energy                ...    -88.37475421 Eh
Zero point energy                ...      0.25114191 Eh     157.59 kcal/mol
Thermal vibrational correction   ...      0.00985128 Eh       6.18 kcal/mol
Thermal rotational correction    ...      0.00141627 Eh       0.89 kcal/mol
Thermal translational correction ...      0.00141627 Eh       0.89 kcal/mol
-----------------------------------------------------------------------
Total thermal energy                    -88.11092848 Eh

Summary of corrections to the electronic energy:
(perhaps to be used in another calculation)
Total thermal correction                  0.01268382 Eh       7.96 kcal/mol
Non-thermal (ZPE) correction              0.25114191 Eh     157.59 kcal/mol
-----------------------------------------------------------------------
Total correction                          0.26382573 Eh     165.55 kcal/mol

--------
ENTHALPY
--------

The enthalpy is H = U + kB*T
                kB is Boltzmann's constant
Total thermal energy              ...    -88.11092848 Eh
Thermal Enthalpy correction       ...      0.00094421 Eh       0.59 kcal/mol
-----------------------------------------------------------------------
Total Enthalpy                    ...    -88.10998427 Eh

Note: Only C1 symmetry has been detected, increase convergence thresholds
      if your molecule has a higher symmetry. Symmetry factor of 1.0 is
      used for the rotational entropy correction.

Note: Rotational entropy computed according to Herzberg
Infrared and Raman Spectra, Chapter V,1, Van Nostrand Reinhold, 1945
Point Group:  C1, Symmetry Number:   1
Rotational constants in cm-1:     0.050893     0.019834     0.015799

Vibrational entropy computed according to the QRRHO of S. Grimme
Chem.Eur.J. 2012 18 9955 using a reference frequency of 100.0 cm-1

-------
ENTROPY
-------

The entropy contributions are T*S = T*(S(el)+S(vib)+S(rot)+S(trans))
     S(el)   - electronic entropy

                             ****ORCA TERMINATED NORMALLY****
TOTAL RUN TIME: 0 days 0 hours 10 minutes 14 seconds 133 msec
