                         Program Version 6.0.1  -  RELEASE   -
|  1> ! wB97X-3c OPT FREQ TightSCF
|  2> %pal
|  3>   nprocs 40
|  4> end
|  5> * xyz 0 1
|  6> C      5.244162     1.446176    -0.229878
|  7> C      3.853100     0.917278    -0.442338
|  8> C      3.645472    -0.133801    -1.251023
|  9> C      2.252679    -0.675703    -1.415841
| 10> C      1.552749    -0.820696    -0.043160
| 11> C      1.813304     0.400595     0.913110
| 12> C      2.668305     1.512959     0.280058
| 13> C      0.061348    -1.194771    -0.272121
| 14> C     -0.884990    -0.092097    -0.629737
| 15> O     -0.836468    -0.659101     0.670145
| 16> C     -2.191438    -0.417448    -1.381081
| 17> C     -3.362881    -0.673086    -0.461446
| 18> C     -3.972824     0.282108     0.276275
| 19> C     -5.149753    -0.078421     1.145151
| 20> C     -3.537847     1.725816     0.232376
| 21> C     -0.275893    -2.652628    -0.614763
| 22> H      5.243318     2.311581     0.465110
| 23> H      5.887304     0.649114     0.199375
| 24> H      5.671487     1.776437    -1.200166
| 25> H      4.476251    -0.620027    -1.755069
| 26> H      1.678404     0.025190    -2.060536
| 27> H      2.297481    -1.659529    -1.930984
| 28> H      2.025263    -1.698578     0.452567
| 29> H      0.882285     0.864963     1.294110
| 30> H      2.351272     0.032143     1.814833
| 31> H      2.994211     2.224116     1.069090
| 32> H      2.049001     2.076896    -0.450954
| 33> H     -0.509518     0.952611    -0.633348
| 34> H     -2.049288    -1.293990    -2.046160
| 35> H     -2.433146     0.427895    -2.058630
| 36> H     -3.736984    -1.692690    -0.423893
| 37> H     -5.336005    -1.173661     1.167692
| 38> H     -4.960769     0.261250     2.185138
| 39> H     -6.060644     0.426436     0.760790
| 40> H     -3.589165     2.112059    -0.806867
| 41> H     -4.199923     2.355836     0.863515
| 42> H     -2.503399     1.826184     0.619566
| 43> H      0.347139    -3.338912    -0.004405
| 44> H     -1.339580    -2.892399    -0.403995
| 45> H     -0.064020    -2.840105    -1.687860
| 46> *
| 47>
| 48>                          ****END OF INPUT****
 Total Charge           Charge          ....    0
 Multiplicity           Mult            ....    1
 Number of Electrons    NEL             ....   90
Dispersion correction           -0.049298262
FINAL SINGLE POINT ENERGY      -115.922035115971
Dispersion correction             ... done (  0.1 sec)
Dispersion correction           -0.049937136
FINAL SINGLE POINT ENERGY      -115.936823764170
Dispersion correction             ... done (  0.1 sec)
Dispersion correction           -0.050123444
FINAL SINGLE POINT ENERGY      -115.939044341204
Dispersion correction             ... done (  0.1 sec)
FINAL SINGLE POINT ENERGY      -115.939688690078
FINAL SINGLE POINT ENERGY      -115.940116285993
FINAL SINGLE POINT ENERGY      -115.940522612234
FINAL SINGLE POINT ENERGY      -115.941168001420
FINAL SINGLE POINT ENERGY      -115.941857470809
FINAL SINGLE POINT ENERGY      -115.942935747602
FINAL SINGLE POINT ENERGY      -115.944364870261
FINAL SINGLE POINT ENERGY      -115.949860253036
FINAL SINGLE POINT ENERGY      -115.949999050739
FINAL SINGLE POINT ENERGY      -115.950067180958
FINAL SINGLE POINT ENERGY      -115.950161401338
FINAL SINGLE POINT ENERGY      -115.950201379987
FINAL SINGLE POINT ENERGY      -115.950236084208
FINAL SINGLE POINT ENERGY      -115.950245406736
Dispersion correction             ... done (  0.1 sec)
Dispersion correction           -0.048889884
FINAL SINGLE POINT ENERGY      -115.950248839759
Dispersion correction             ... done (  0.1 sec)
Dispersion correction           -0.048886578
FINAL SINGLE POINT ENERGY      -115.950250091749
Dispersion correction             ... done (  0.1 sec)
                    ***********************HURRAY********************

CARTESIAN COORDINATES (ANGSTROEM)
---------------------------------
  C      4.727193    1.932386    0.021930
  C      3.595663    0.996738   -0.239529
  C      3.556449    0.145079   -1.255721
  C      2.351291   -0.715708   -1.476657
  C      1.774736   -1.317555   -0.181336
  C      2.030809   -0.433855    1.045549
  C      2.427753    0.996533    0.702878
  C      0.314134   -1.676639   -0.408772
  C     -0.737251   -0.717942   -0.078858
  O     -0.481538   -1.835584    0.759041
  C     -2.085950   -0.632781   -0.736756
  C     -3.137888   -0.266212    0.261439
  C     -3.965367    0.774117    0.241708
  C     -4.958066    0.981031    1.344673
  C     -4.017439    1.814016   -0.833671
  C      0.101287   -2.732632   -1.458408
  H      4.379159    2.966727    0.027435
  H      5.169520    1.742174    1.001232
  H      5.507289    1.839308   -0.731187
  H      4.372343    0.094292   -1.967126
  H      1.574173   -0.104326   -1.949031
  H      2.578186   -1.509423   -2.186792
  H      2.286550   -2.266699   -0.006270
  H      1.167305   -0.454847    1.707919
  H      2.852316   -0.869498    1.614161
  H      2.668797    1.541287    1.616440
  H      1.588579    1.527806    0.242342
  H     -0.423018    0.223896    0.365168
  H     -2.337543   -1.591325   -1.188269
  H     -2.024829    0.094403   -1.545132
  H     -3.205085   -0.947824    1.103664
  H     -4.884370    0.205601    2.103746
  H     -4.804876    1.947993    1.826816
  H     -5.976760    0.980845    0.953118
  H     -3.283819    1.663781   -1.619408
  H     -5.005504    1.828362   -1.296601
  H     -3.856902    2.805850   -0.408079
  H      0.776810   -3.569676   -1.281591
  H     -0.913810   -3.114792   -1.429269
  H      0.299677   -2.344906   -2.456149

 Multiplicity           Mult            ....    1
 Number of Electrons    NEL             ....   90
 Basis Dimension        Dim             ....  328

ORBITAL ENERGIES
----------------

  NO   OCC          E(Eh)            E(eV)
   0   2.0000      -1.205500       -32.8033
   1   2.0000      -0.987442       -26.8697
   2   2.0000      -0.960729       -26.1428
   3   2.0000      -0.923659       -25.1340
   4   2.0000      -0.898813       -24.4579
   5   2.0000      -0.881885       -23.9973
   6   2.0000      -0.869391       -23.6573
   7   2.0000      -0.828722       -22.5507
   8   2.0000      -0.821454       -22.3529
   9   2.0000      -0.798318       -21.7233
  10   2.0000      -0.753189       -20.4953
  11   2.0000      -0.746513       -20.3136
  12   2.0000      -0.721259       -19.6264
  13   2.0000      -0.672807       -18.3080
  14   2.0000      -0.640564       -17.4306
  15   2.0000      -0.633618       -17.2416
  16   2.0000      -0.613930       -16.7059
  17   2.0000      -0.599256       -16.3066
  18   2.0000      -0.585655       -15.9365
  19   2.0000      -0.573423       -15.6036
  20   2.0000      -0.564150       -15.3513
  21   2.0000      -0.554994       -15.1022
  22   2.0000      -0.549094       -14.9416
  23   2.0000      -0.542870       -14.7723
  24   2.0000      -0.530996       -14.4491
  25   2.0000      -0.524606       -14.2752
  26   2.0000      -0.513999       -13.9866
  27   2.0000      -0.507007       -13.7964
  28   2.0000      -0.501484       -13.6461
  29   2.0000      -0.500159       -13.6100
  30   2.0000      -0.494914       -13.4673
  31   2.0000      -0.487150       -13.2560
  32   2.0000      -0.479003       -13.0343
  33   2.0000      -0.476060       -12.9543
  34   2.0000      -0.466648       -12.6981
  35   2.0000      -0.464810       -12.6481
  36   2.0000      -0.455979       -12.4078
  37   2.0000      -0.440784       -11.9943
  38   2.0000      -0.431281       -11.7358
  39   2.0000      -0.416835       -11.3427
  40   2.0000      -0.405603       -11.0370
  41   2.0000      -0.387230       -10.5371
  42   2.0000      -0.371090       -10.0979
  43   2.0000      -0.333454        -9.0737
  44   2.0000      -0.330998        -9.0069
  45   0.0000       0.082045         2.2326
  46   0.0000       0.087239         2.3739
  47   0.0000       0.092537         2.5181
  48   0.0000       0.095653         2.6029
  49   0.0000       0.097698         2.6585

MULLIKEN ATOMIC CHARGES
-----------------------
   0 C :   -0.048363
   1 C :   -0.059199
   2 C :   -0.016565
   3 C :   -0.071715
   4 C :   -0.063979
   5 C :   -0.023258
   6 C :   -0.055686
   7 C :    0.076588
   8 C :    0.104778
   9 O :   -0.372958
  10 C :   -0.041413
  11 C :   -0.023435
  12 C :   -0.077589
  13 C :   -0.048478
  14 C :   -0.052532
  15 C :   -0.022498
  16 H :    0.038052
  17 H :    0.036948
  18 H :    0.027149
  19 H :    0.008532
  20 H :    0.039696
  21 H :    0.044126
  22 H :    0.037613
  23 H :    0.047857
  24 H :    0.034725
  25 H :    0.032511
  26 H :    0.038224
  27 H :    0.015513
  28 H :    0.043837
  29 H :    0.026822
  30 H :    0.021897
  31 H :    0.028084
  32 H :    0.034427
  33 H :    0.034863
  34 H :    0.019938
  35 H :    0.040137
  36 H :    0.038476
  37 H :    0.034992
  38 H :    0.037607
  39 H :    0.034280
Sum of atomic charges:    0.0000000

LOEWDIN ATOMIC CHARGES
----------------------
   0 C :   -0.110578
   1 C :   -0.046750
   2 C :   -0.054946
   3 C :   -0.078943
   4 C :   -0.048252
   5 C :   -0.064423
   6 C :   -0.078282
   7 C :   -0.039697
   8 C :   -0.024782
   9 O :   -0.091499
  10 C :   -0.079908
  11 C :   -0.049977
  12 C :   -0.055524
  13 C :   -0.106712
  14 C :   -0.106600
  15 C :   -0.095158
  16 H :    0.049887
  17 H :    0.049240
  18 H :    0.050250
  19 H :    0.034104
  20 H :    0.047603
  21 H :    0.047076
  22 H :    0.048109
  23 H :    0.045657
  24 H :    0.047705
  25 H :    0.049628
  26 H :    0.043866
  27 H :    0.041352
  28 H :    0.050451
  29 H :    0.046681
  30 H :    0.044009
  31 H :    0.050400
  32 H :    0.047738
  33 H :    0.047905
  34 H :    0.041747
  35 H :    0.051052
  36 H :    0.050377
  37 H :    0.050671
  38 H :    0.048173
  39 H :    0.048347

  Mayer bond orders larger than 0.100000
B(  0-C ,  1-C ) :   1.0373 B(  0-C , 16-H ) :   0.9769 B(  0-C , 17-H ) :   0.9777
B(  0-C , 18-H ) :   0.9904 B(  1-C ,  2-C ) :   1.8976 B(  1-C ,  6-C ) :   1.0072
B(  2-C ,  3-C ) :   1.0427 B(  2-C , 19-H ) :   0.9903 B(  3-C ,  4-C ) :   0.9590
B(  3-C , 20-H ) :   0.9752 B(  3-C , 21-H ) :   0.9952 B(  4-C ,  5-C ) :   0.9947
B(  4-C ,  7-C ) :   1.0134 B(  4-C , 22-H ) :   0.9934 B(  5-C ,  6-C ) :   0.9803
B(  5-C , 23-H ) :   0.9880 B(  5-C , 24-H ) :   0.9972 B(  6-C , 25-H ) :   0.9964
B(  6-C , 26-H ) :   0.9791 B(  7-C ,  8-C ) :   0.9998 B(  7-C ,  9-O ) :   0.8822
B(  7-C , 15-C ) :   1.0255 B(  8-C ,  9-O ) :   0.9009 B(  8-C , 10-C ) :   1.0117
B(  8-C , 27-H ) :   1.0056 B( 10-C , 11-C ) :   1.0305 B( 10-C , 28-H ) :   0.9763
B( 10-C , 29-H ) :   0.9863 B( 11-C , 12-C ) :   1.8870 B( 11-C , 30-H ) :   0.9928
B( 12-C , 13-C ) :   1.0312 B( 12-C , 14-C ) :   1.0351 B( 13-C , 31-H ) :   0.9917
B( 13-C , 32-H ) :   0.9802 B( 13-C , 33-H ) :   0.9799 B( 14-C , 34-H ) :   0.9910
B( 14-C , 35-H ) :   0.9769 B( 14-C , 36-H ) :   0.9771 B( 15-C , 37-H ) :   0.9841
B( 15-C , 38-H ) :   0.9849 B( 15-C , 39-H ) :   0.9780

Dispersion correction           -0.048884496
FINAL SINGLE POINT ENERGY      -115.950250561413

DIPOLE MOMENT
-------------

Method             : SCF
Type of density    : Electron Density
Multiplicity       :   1
Irrep              :   0
Energy             :  -115.9013660656463003 Eh
Relativity type    :
Basis              : AO
                                X                 Y                 Z
Electronic contribution:      4.613665319      -5.789258643       1.078081542
Nuclear contribution   :     -4.560695503       6.303980687      -1.661836806
                        -----------------------------------------
Total Dipole Moment    :      0.052969816       0.514722044      -0.583755264
                        -----------------------------------------
Magnitude (a.u.)       :      0.780073582
Magnitude (Debye)      :      1.982789469

VIBRATIONAL FREQUENCIES
-----------------------

Scaling factor for frequencies =  1.000000000  (already applied!)

     0:       0.00 cm**-1
     1:       0.00 cm**-1
     2:       0.00 cm**-1
     3:       0.00 cm**-1
     4:       0.00 cm**-1
     5:       0.00 cm**-1
     6:      20.32 cm**-1
     7:      28.23 cm**-1
     8:      43.65 cm**-1
     9:      59.88 cm**-1
    10:      76.34 cm**-1
    11:     119.52 cm**-1
    12:     133.11 cm**-1
    13:     145.34 cm**-1
    14:     171.68 cm**-1
    15:     187.41 cm**-1
    16:     195.92 cm**-1
    17:     220.24 cm**-1
    18:     241.60 cm**-1
    19:     254.24 cm**-1
    20:     281.37 cm**-1
    21:     306.08 cm**-1
    22:     331.51 cm**-1
    23:     348.64 cm**-1
    24:     385.01 cm**-1
    25:     424.75 cm**-1
    26:     433.39 cm**-1
    27:     460.13 cm**-1
    28:     467.66 cm**-1
    29:     503.31 cm**-1
    30:     525.89 cm**-1
    31:     543.67 cm**-1
    32:     573.86 cm**-1
    33:     604.08 cm**-1
    34:     684.17 cm**-1
    35:     740.53 cm**-1
    36:     797.54 cm**-1
    37:     803.12 cm**-1
    38:     833.45 cm**-1
    39:     842.65 cm**-1
    40:     867.54 cm**-1
    41:     900.43 cm**-1
    42:     947.07 cm**-1
    43:     949.57 cm**-1
    44:     968.88 cm**-1
    45:     980.31 cm**-1
    46:     985.71 cm**-1
    47:    1012.48 cm**-1
    48:    1036.85 cm**-1
    49:    1040.18 cm**-1
    50:    1043.17 cm**-1
    51:    1062.76 cm**-1
    52:    1078.90 cm**-1
    53:    1094.55 cm**-1
    54:    1116.54 cm**-1
    55:    1128.91 cm**-1
    56:    1138.99 cm**-1
    57:    1145.06 cm**-1
    58:    1154.63 cm**-1
    59:    1170.27 cm**-1
    60:    1184.59 cm**-1
    61:    1213.18 cm**-1
    62:    1232.86 cm**-1
    63:    1235.09 cm**-1
    64:    1258.17 cm**-1
    65:    1278.04 cm**-1
    66:    1293.35 cm**-1
    67:    1302.54 cm**-1
    68:    1344.85 cm**-1
    69:    1353.39 cm**-1
    70:    1357.10 cm**-1
    71:    1386.27 cm**-1
    72:    1396.64 cm**-1
    73:    1417.13 cm**-1
    74:    1417.61 cm**-1
    75:    1427.07 cm**-1
    76:    1436.00 cm**-1
    77:    1450.55 cm**-1
    78:    1453.47 cm**-1
    79:    1457.06 cm**-1
    80:    1459.60 cm**-1
    81:    1494.74 cm**-1
    82:    1503.02 cm**-1
    83:    1507.56 cm**-1
    84:    1508.81 cm**-1
    85:    1515.78 cm**-1
    86:    1516.83 cm**-1
    87:    1521.26 cm**-1
    88:    1522.91 cm**-1
    89:    1525.04 cm**-1
    90:    1529.11 cm**-1
    91:    1531.15 cm**-1
    92:    1543.35 cm**-1
    93:    1578.84 cm**-1
    94:    1798.85 cm**-1
    95:    1810.32 cm**-1
    96:    3067.33 cm**-1
    97:    3081.68 cm**-1
    98:    3093.17 cm**-1
    99:    3094.55 cm**-1
   100:    3097.10 cm**-1
   101:    3101.32 cm**-1
   102:    3113.23 cm**-1
   103:    3124.05 cm**-1
   104:    3133.59 cm**-1
   105:    3150.33 cm**-1
   106:    3159.60 cm**-1
   107:    3168.78 cm**-1
   108:    3169.81 cm**-1
   109:    3169.98 cm**-1
   110:    3171.45 cm**-1
   111:    3180.64 cm**-1
   112:    3190.22 cm**-1
   113:    3197.82 cm**-1
   114:    3203.02 cm**-1
   115:    3207.87 cm**-1
   116:    3213.70 cm**-1
   117:    3228.29 cm**-1
   118:    3230.17 cm**-1
   119:    3235.85 cm**-1

IR SPECTRUM
-----------

 Mode   freq       eps      Int      T**2         TX        TY        TZ
       cm**-1   L/(mol*cm) km/mol    a.u.
----------------------------------------------------------------------------
  6:     20.32   0.000011    0.06  0.000170  ( 0.003608  0.011764  0.004289)
  7:     28.23   0.000024    0.12  0.000261  (-0.013701  0.007995 -0.003070)
  8:     43.65   0.000004    0.02  0.000027  (-0.003856 -0.003157  0.001500)
  9:     59.88   0.000017    0.08  0.000086  (-0.004274 -0.002189 -0.007961)
 10:     76.34   0.000190    0.96  0.000776  ( 0.011712 -0.025237  0.001325)
 11:    119.52   0.000131    0.66  0.000342  ( 0.010193  0.015192  0.002762)
 12:    133.11   0.000038    0.19  0.000090  ( 0.001539 -0.007951  0.004905)
 13:    145.34   0.000137    0.69  0.000294  ( 0.016867  0.002984  0.000711)
 14:    171.68   0.000199    1.01  0.000362  ( 0.009715  0.016324 -0.000871)
 15:    187.41   0.000353    1.78  0.000588  ( 0.017173  0.012500  0.011684)
 16:    195.92   0.000143    0.72  0.000228  (-0.004884  0.011901 -0.007931)
 17:    220.24   0.000085    0.43  0.000120  ( 0.010414 -0.003325  0.000923)
 18:    241.60   0.000111    0.56  0.000144  (-0.009483 -0.000334 -0.007336)
 19:    254.24   0.000464    2.34  0.000569  (-0.002653 -0.023341  0.004143)
 20:    281.37   0.000007    0.04  0.000008  (-0.000186  0.002392  0.001541)
 21:    306.08   0.000333    1.68  0.000339  (-0.007967 -0.010669 -0.012719)
 22:    331.51   0.000210    1.06  0.000197  (-0.008047  0.011483 -0.000876)
 23:    348.64   0.000179    0.91  0.000161  ( 0.011741  0.004286  0.002103)
 24:    385.01   0.000010    0.05  0.000008  (-0.000019 -0.000914  0.002720)
 25:    424.75   0.000002    0.01  0.000002  (-0.000272  0.000675  0.001092)
 26:    433.39   0.000687    3.47  0.000495  ( 0.013963 -0.003704  0.016918)
 27:    460.13   0.001082    5.47  0.000734  ( 0.024906 -0.001888 -0.010476)
 28:    467.66   0.001499    7.57  0.001000  (-0.021178 -0.016139 -0.017058)
 29:    503.31   0.000377    1.91  0.000234  (-0.009287 -0.011318  0.004433)
 30:    525.89   0.001158    5.85  0.000687  (-0.015043  0.009969 -0.019014)
 31:    543.67   0.001238    6.25  0.000710  ( 0.025354 -0.006945  0.004389)
 32:    573.86   0.000804    4.06  0.000437  ( 0.019661  0.007116  0.000233)
 33:    604.08   0.000991    5.01  0.000512  (-0.011857  0.017180  0.008735)
 34:    684.17   0.000241    1.22  0.000110  (-0.008234  0.004600 -0.004582)
 35:    740.53   0.000585    2.96  0.000247  ( 0.004960  0.013381 -0.006548)
 36:    797.54   0.000105    0.53  0.000041  ( 0.002575 -0.005268  0.002622)
 37:    803.12   0.001218    6.16  0.000473  ( 0.021665  0.000909 -0.001807)
 38:    833.45   0.003951   19.97  0.001479  (-0.021245  0.025786 -0.019053)
 39:    842.65   0.001322    6.68  0.000489  (-0.009052  0.011502  0.016589)
 40:    867.54   0.000932    4.71  0.000335  ( 0.012142  0.010229  0.009127)
 41:    900.43   0.002394   12.10  0.000830  (-0.025278 -0.011080 -0.008252)
 42:    947.07   0.000010    0.05  0.000003  ( 0.000631 -0.001712  0.000113)
 43:    949.57   0.003650   18.44  0.001199  (-0.019641 -0.010237  0.026624)
 44:    968.88   0.002123   10.73  0.000684  (-0.015460 -0.013286  0.016374)
 45:    980.31   0.001562    7.89  0.000497  ( 0.008194 -0.015142  0.014167)
 46:    985.71   0.000194    0.98  0.000062  (-0.005626  0.000372  0.005456)
 47:   1012.48   0.000658    3.33  0.000203  (-0.004024  0.012407 -0.005727)
 48:   1036.85   0.000672    3.39  0.000202  ( 0.010085  0.008280  0.005647)
 49:   1040.18   0.002325   11.75  0.000698  ( 0.025495 -0.006860  0.000777)
 50:   1043.17   0.000172    0.87  0.000052  (-0.002581  0.006620  0.001020)
 51:   1062.76   0.001407    7.11  0.000413  (-0.000604 -0.005654 -0.019513)
 52:   1078.90   0.001896    9.58  0.000549  ( 0.016747 -0.014973  0.006622)
 53:   1094.55   0.000303    1.53  0.000086  ( 0.008784 -0.000202  0.003025)
 54:   1116.54   0.000541    2.73  0.000151  ( 0.002855 -0.005153 -0.010791)
 55:   1128.91   0.000101    0.51  0.000028  (-0.004890 -0.001113 -0.001695)
 56:   1138.99   0.002057   10.39  0.000564  (-0.014210 -0.015804  0.010577)
 57:   1145.06   0.002092   10.57  0.000570  (-0.000534  0.020155 -0.012792)
 58:   1154.63   0.001435    7.25  0.000388  (-0.008296  0.017583 -0.003156)
 59:   1170.27   0.003445   17.41  0.000919  (-0.028167  0.007700  0.008115)
 60:   1184.59   0.001574    7.96  0.000415  (-0.012995  0.015421 -0.002833)
 61:   1213.18   0.000595    3.01  0.000153  (-0.010327  0.003599 -0.005789)
 62:   1232.86   0.000940    4.75  0.000238  ( 0.013296  0.005763  0.005295)
 63:   1235.09   0.000629    3.18  0.000159  ( 0.011123  0.005530  0.002182)
 64:   1258.17   0.000852    4.31  0.000211  ( 0.010328  0.008741 -0.005326)
 65:   1278.04   0.003080   15.57  0.000752  (-0.022030 -0.006365 -0.015043)
 66:   1293.35   0.000865    4.37  0.000209  (-0.007477  0.004990  0.011311)
 67:   1302.54   0.000590    2.98  0.000141  ( 0.004571 -0.003924 -0.010247)
 68:   1344.85   0.000028    0.14  0.000007  (-0.000557  0.001973  0.001517)
 69:   1353.39   0.000615    3.11  0.000142  ( 0.007097  0.009533  0.000796)
 70:   1357.10   0.000886    4.48  0.000204  ( 0.010428  0.008289 -0.005132)
 71:   1386.27   0.000430    2.17  0.000097  (-0.009288  0.001493  0.002883)
 72:   1396.64   0.000136    0.69  0.000030  (-0.005506  0.000275  0.000236)
 73:   1417.13   0.000088    0.44  0.000019  ( 0.003860 -0.002079 -0.000363)
 74:   1417.61   0.001110    5.61  0.000244  ( 0.014788 -0.003498 -0.003650)
 75:   1427.07   0.000063    0.32  0.000014  ( 0.002077 -0.003051 -0.000271)
 76:   1436.00   0.000773    3.91  0.000168  (-0.010981 -0.004882 -0.004850)
 77:   1450.55   0.000966    4.88  0.000208  (-0.005862 -0.005158  0.012119)
 78:   1453.47   0.001189    6.01  0.000255  (-0.014157 -0.006558  0.003444)
 79:   1457.06   0.004965   25.09  0.001063  ( 0.003463  0.022292  0.023548)
 80:   1459.60   0.002870   14.50  0.000614  (-0.003702  0.020615 -0.013223)
 81:   1494.74   0.000620    3.13  0.000129  ( 0.001895  0.000195  0.011213)
 82:   1503.02   0.000077    0.39  0.000016  ( 0.003239  0.002243 -0.000674)
 83:   1507.56   0.000796    4.02  0.000165  ( 0.008491  0.008333 -0.004827)
 84:   1508.81   0.003054   15.44  0.000632  (-0.019401  0.014809 -0.006003)
 85:   1515.78   0.002321   11.73  0.000478  (-0.008442  0.000637  0.020152)
 86:   1516.83   0.001026    5.18  0.000211  ( 0.000539  0.009839 -0.010676)
 87:   1521.26   0.001348    6.81  0.000277  (-0.008067  0.007272  0.012596)
 88:   1522.91   0.004347   21.97  0.000891  ( 0.020839  0.014374  0.015806)
 89:   1525.04   0.002069   10.46  0.000423  ( 0.006021 -0.013660  0.014162)
 90:   1529.11   0.001356    6.85  0.000277  (-0.008261  0.014067  0.003266)
 91:   1531.15   0.001451    7.33  0.000296  ( 0.000416  0.016582 -0.004540)
 92:   1543.35   0.001923    9.72  0.000389  (-0.008690  0.001893 -0.017599)
 93:   1578.84   0.002696   13.62  0.000533  (-0.000100  0.006231 -0.022227)
 94:   1798.85   0.000782    3.95  0.000136  (-0.000576  0.007393  0.008983)
 95:   1810.32   0.001025    5.18  0.000177  ( 0.009389 -0.009136  0.002242)
 96:   3067.33   0.005746   29.04  0.000585  ( 0.016196 -0.000120  0.017951)
 97:   3081.68   0.005204   26.30  0.000527  ( 0.013430 -0.017207 -0.007109)
 98:   3093.17   0.007862   39.73  0.000793  (-0.017330 -0.020662 -0.008118)
 99:   3094.55   0.006925   35.00  0.000698  (-0.019168  0.006204  0.017101)
100:   3097.10   0.002033   10.27  0.000205  (-0.007008  0.012365 -0.001690)
101:   3101.32   0.008031   40.58  0.000808  ( 0.016118 -0.022584  0.006186)
102:   3113.23   0.003571   18.04  0.000358  ( 0.003832 -0.015290 -0.010461)
103:   3124.05   0.005667   28.64  0.000566  (-0.009800  0.014046 -0.016516)
104:   3133.59   0.003344   16.90  0.000333  ( 0.000179 -0.004280 -0.017740)
105:   3150.33   0.007075   35.75  0.000701  (-0.011236 -0.008659 -0.022352)
106:   3159.60   0.003925   19.83  0.000388  (-0.004946  0.017055  0.008502)
107:   3168.78   0.001561    7.89  0.000154  (-0.004086 -0.011427 -0.002536)
108:   3169.81   0.000782    3.95  0.000077  ( 0.005843  0.005134  0.004063)
109:   3169.98   0.002041   10.31  0.000201  (-0.006966  0.009314 -0.008100)
110:   3171.45   0.003940   19.91  0.000388  (-0.012952 -0.011362 -0.009534)
111:   3180.64   0.001896    9.58  0.000186  ( 0.012075 -0.005168 -0.003675)
112:   3190.22   0.002631   13.29  0.000257  ( 0.000497 -0.016007 -0.000928)
113:   3197.82   0.002074   10.48  0.000202  (-0.007585  0.007609 -0.009326)
114:   3203.02   0.002525   12.76  0.000246  (-0.010342  0.002089  0.011604)
115:   3207.87   0.000849    4.29  0.000083  (-0.005212  0.006497 -0.003632)
116:   3213.70   0.003124   15.79  0.000303  ( 0.002368  0.012505 -0.011889)
117:   3228.29   0.003284   16.60  0.000317  (-0.011724  0.000685  0.013399)
118:   3230.17   0.004676   23.63  0.000452  (-0.017667 -0.002027  0.011643)
119:   3235.85   0.002486   12.56  0.000240  ( 0.014324  0.004969 -0.003148)

--------------------------
THERMOCHEMISTRY AT 298.15K
--------------------------

Temperature         ...   298.15 K
Pressure            ...     1.00 atm
Total Mass          ...   220.36 AMU
Quasi RRHO          ...     True
Cut-Off Frequency   ...     1.00 cm^-1

Throughout the following assumptions are being made:
  (1) The electronic state is orbitally nondegenerate
  (2) There are no thermally accessible electronically excited states
  (3) Hindered rotations indicated by low frequency modes are not
      treated as such but are treated as vibrations and this may
      cause some error
  (4) All equations used are the standard statistical mechanics
      equations for an ideal gas
  (5) All vibrations are strictly harmonic

freq.      20.32  E(vib)   ...       0.56
freq.      28.23  E(vib)   ...       0.55
freq.      43.65  E(vib)   ...       0.53
freq.      59.88  E(vib)   ...       0.51
freq.      76.34  E(vib)   ...       0.49
freq.     119.52  E(vib)   ...       0.44
freq.     133.11  E(vib)   ...       0.42
freq.     145.34  E(vib)   ...       0.41
freq.     171.68  E(vib)   ...       0.38
freq.     187.41  E(vib)   ...       0.36
freq.     195.92  E(vib)   ...       0.36
freq.     220.24  E(vib)   ...       0.33
freq.     241.60  E(vib)   ...       0.31
freq.     254.24  E(vib)   ...       0.30
freq.     281.37  E(vib)   ...       0.28
freq.     306.08  E(vib)   ...       0.26
freq.     331.51  E(vib)   ...       0.24
freq.     348.64  E(vib)   ...       0.23
freq.     385.01  E(vib)   ...       0.20
freq.     424.75  E(vib)   ...       0.18
freq.     433.39  E(vib)   ...       0.17
freq.     460.13  E(vib)   ...       0.16
freq.     467.66  E(vib)   ...       0.16
freq.     503.31  E(vib)   ...       0.14
freq.     525.89  E(vib)   ...       0.13
freq.     543.67  E(vib)   ...       0.12
freq.     573.86  E(vib)   ...       0.11
freq.     604.08  E(vib)   ...       0.10
freq.     684.17  E(vib)   ...       0.07
freq.     740.53  E(vib)   ...       0.06
freq.     797.54  E(vib)   ...       0.05
freq.     803.12  E(vib)   ...       0.05
freq.     833.45  E(vib)   ...       0.04
freq.     842.65  E(vib)   ...       0.04
freq.     867.54  E(vib)   ...       0.04
freq.     900.43  E(vib)   ...       0.03
freq.     947.07  E(vib)   ...       0.03
freq.     949.57  E(vib)   ...       0.03
freq.     968.88  E(vib)   ...       0.03
freq.     980.31  E(vib)   ...       0.02
freq.     985.71  E(vib)   ...       0.02
freq.    1012.48  E(vib)   ...       0.02
freq.    1036.85  E(vib)   ...       0.02
freq.    1040.18  E(vib)   ...       0.02
freq.    1043.17  E(vib)   ...       0.02
freq.    1062.76  E(vib)   ...       0.02
freq.    1078.90  E(vib)   ...       0.02
freq.    1094.55  E(vib)   ...       0.02
freq.    1116.54  E(vib)   ...       0.01
freq.    1128.91  E(vib)   ...       0.01
freq.    1138.99  E(vib)   ...       0.01
freq.    1145.06  E(vib)   ...       0.01
freq.    1154.63  E(vib)   ...       0.01
freq.    1170.27  E(vib)   ...       0.01
freq.    1184.59  E(vib)   ...       0.01
freq.    1213.18  E(vib)   ...       0.01
freq.    1232.86  E(vib)   ...       0.01
freq.    1235.09  E(vib)   ...       0.01
freq.    1258.17  E(vib)   ...       0.01
freq.    1278.04  E(vib)   ...       0.01
freq.    1293.35  E(vib)   ...       0.01
freq.    1302.54  E(vib)   ...       0.01
freq.    1344.85  E(vib)   ...       0.01
freq.    1353.39  E(vib)   ...       0.01
freq.    1357.10  E(vib)   ...       0.01
freq.    1386.27  E(vib)   ...       0.00
freq.    1396.64  E(vib)   ...       0.00
freq.    1417.13  E(vib)   ...       0.00
freq.    1417.61  E(vib)   ...       0.00
freq.    1427.07  E(vib)   ...       0.00
freq.    1436.00  E(vib)   ...       0.00
freq.    1450.55  E(vib)   ...       0.00
freq.    1453.47  E(vib)   ...       0.00
freq.    1457.06  E(vib)   ...       0.00
freq.    1459.60  E(vib)   ...       0.00
freq.    1494.74  E(vib)   ...       0.00
freq.    1503.02  E(vib)   ...       0.00
freq.    1507.56  E(vib)   ...       0.00
freq.    1508.81  E(vib)   ...       0.00
freq.    1515.78  E(vib)   ...       0.00
freq.    1516.83  E(vib)   ...       0.00
freq.    1521.26  E(vib)   ...       0.00
freq.    1522.91  E(vib)   ...       0.00
freq.    1525.04  E(vib)   ...       0.00
freq.    1529.11  E(vib)   ...       0.00
freq.    1531.15  E(vib)   ...       0.00
freq.    1543.35  E(vib)   ...       0.00
freq.    1578.84  E(vib)   ...       0.00
freq.    1798.85  E(vib)   ...       0.00
freq.    1810.32  E(vib)   ...       0.00
freq.    3067.33  E(vib)   ...       0.00
freq.    3081.68  E(vib)   ...       0.00
freq.    3093.17  E(vib)   ...       0.00
freq.    3094.55  E(vib)   ...       0.00
freq.    3097.10  E(vib)   ...       0.00
freq.    3101.32  E(vib)   ...       0.00
freq.    3113.23  E(vib)   ...       0.00
freq.    3124.05  E(vib)   ...       0.00
freq.    3133.59  E(vib)   ...       0.00
freq.    3150.33  E(vib)   ...       0.00
freq.    3159.60  E(vib)   ...       0.00
freq.    3168.78  E(vib)   ...       0.00
freq.    3169.81  E(vib)   ...       0.00
freq.    3169.98  E(vib)   ...       0.00
freq.    3171.45  E(vib)   ...       0.00
freq.    3180.64  E(vib)   ...       0.00
freq.    3190.22  E(vib)   ...       0.00
freq.    3197.82  E(vib)   ...       0.00
freq.    3203.02  E(vib)   ...       0.00
freq.    3207.87  E(vib)   ...       0.00
freq.    3213.70  E(vib)   ...       0.00
freq.    3228.29  E(vib)   ...       0.00
freq.    3230.17  E(vib)   ...       0.00
freq.    3235.85  E(vib)   ...       0.00

------------
INNER ENERGY
------------

The inner energy is: U= E(el) + E(ZPE) + E(vib) + E(rot) + E(trans)
    E(el)   - is the total energy from the electronic structure calculation
              = E(kin-el) + E(nuc-el) + E(el-el) + E(nuc-nuc)
    E(ZPE)  - the the zero temperature vibrational energy from the frequency calculation
    E(vib)  - the the finite temperature correction to E(ZPE) due to population
              of excited vibrational states
    E(rot)  - is the rotational thermal energy
    E(trans)- is the translational thermal energy

Summary of contributions to the inner energy U:
Electronic energy                ...   -115.95025056 Eh
Zero point energy                ...      0.36714221 Eh     230.38 kcal/mol
Thermal vibrational correction   ...      0.01489569 Eh       9.35 kcal/mol
Thermal rotational correction    ...      0.00141627 Eh       0.89 kcal/mol
Thermal translational correction ...      0.00141627 Eh       0.89 kcal/mol
-----------------------------------------------------------------------
Total thermal energy                   -115.56538012 Eh

Summary of corrections to the electronic energy:
(perhaps to be used in another calculation)
Total thermal correction                  0.01772824 Eh      11.12 kcal/mol
Non-thermal (ZPE) correction              0.36714221 Eh     230.38 kcal/mol

Rotational constants in cm-1:     0.028287     0.007967     0.007055

                             ****ORCA TERMINATED NORMALLY****
TOTAL RUN TIME: 0 days 0 hours 49 minutes 7 seconds 367 msec
