                         Program Version 6.0.1  -  RELEASE   -
|  1> ! wB97X-3c OPT FREQ TightSCF
|  2> %pal
|  3>   nprocs 40
|  4> end
|  5> * xyz 0 1
|  6> C      3.061633    -1.056697    -0.505340
|  7> C      3.037349     0.237723     0.270192
|  8> C      1.943556     1.032553     0.308283
|  9> C      0.626027     0.694579    -0.343460
| 10> C     -0.248036    -0.149356     0.599928
| 11> C     -1.582751    -0.603772    -0.056291
| 12> C     -2.469598    -1.336388     0.972377
| 13> C     -1.306603    -1.541449    -1.222034
| 14> C     -0.648778    -2.702306    -1.100515
| 15> O     -2.295880     0.524074    -0.591153
| 16> C     -2.767880     1.633286     0.127885
| 17> O     -2.567251     1.748771     1.366369
| 18> C     -3.472715     2.724280    -0.603056
| 19> C      4.297750     0.663116     0.977874
| 20> H      2.888833    -0.858721    -1.583777
| 21> H      4.047973    -1.557427    -0.405421
| 22> H      2.286482    -1.752335    -0.125168
| 23> H      1.987301     1.971441     0.854070
| 24> H      0.100101     1.646901    -0.568224
| 25> H      0.788398     0.178618    -1.312214
| 26> H     -0.455757     0.446109     1.513812
| 27> H      0.321161    -1.038120     0.944274
| 28> H     -1.968706    -2.251160     1.353824
| 29> H     -3.434587    -1.628941     0.505443
| 30> H     -2.688618    -0.693594     1.848565
| 31> H     -1.652443    -1.255284    -2.211729
| 32> H     -0.480287    -3.321620    -1.975378
| 33> H     -0.273811    -3.046684    -0.142911
| 34> H     -2.746001     3.519858    -0.868542
| 35> H     -3.930176     2.323879    -1.531933
| 36> H     -4.273718     3.155650     0.033719
| 37> H      5.095996     0.850080     0.229404
| 38> H      4.628756    -0.144556     1.663999
| 39> H      4.152279     1.587493     1.577129
| 40> *
| 41>
| 42>                          ****END OF INPUT****
 Total Charge           Charge          ....    0
 Multiplicity           Mult            ....    1
 Number of Electrons    NEL             ....   80
Dispersion correction           -0.039103558
FINAL SINGLE POINT ENERGY      -112.511541159743
Dispersion correction             ... done (  0.1 sec)
Dispersion correction           -0.039906881
FINAL SINGLE POINT ENERGY      -112.532691733367
Dispersion correction             ... done (  0.1 sec)
Dispersion correction           -0.039933669
FINAL SINGLE POINT ENERGY      -112.535073540405
Dispersion correction             ... done (  0.1 sec)
FINAL SINGLE POINT ENERGY      -112.535372387385
FINAL SINGLE POINT ENERGY      -112.535669894394
FINAL SINGLE POINT ENERGY      -112.535892075553
FINAL SINGLE POINT ENERGY      -112.535975148234
FINAL SINGLE POINT ENERGY      -112.536119364689
FINAL SINGLE POINT ENERGY      -112.536345341732
FINAL SINGLE POINT ENERGY      -112.536662253606
FINAL SINGLE POINT ENERGY      -112.538042624004
FINAL SINGLE POINT ENERGY      -112.538111485118
FINAL SINGLE POINT ENERGY      -112.538165041145
FINAL SINGLE POINT ENERGY      -112.538204700118
FINAL SINGLE POINT ENERGY      -112.538237052630
FINAL SINGLE POINT ENERGY      -112.538250044576
FINAL SINGLE POINT ENERGY      -112.538256717760
Dispersion correction             ... done (  0.1 sec)
Dispersion correction           -0.039609963
FINAL SINGLE POINT ENERGY      -112.538259386262
Dispersion correction             ... done (  0.1 sec)
Dispersion correction           -0.039607565
FINAL SINGLE POINT ENERGY      -112.538260625336
Dispersion correction             ... done (  0.1 sec)
                    ***********************HURRAY********************

CARTESIAN COORDINATES (ANGSTROEM)
---------------------------------
  C      3.309605   -0.689947   -0.890368
  C      3.055230    0.279838    0.221560
  C      1.867371    0.797756    0.519866
  C      0.556900    0.534054   -0.148806
  C     -0.376654   -0.254293    0.758908
  C     -1.701095   -0.657966    0.125044
  C     -2.662334   -1.220738    1.161191
  C     -1.556561   -1.665570   -0.987387
  C     -0.572071   -2.529917   -1.154636
  O     -2.325261    0.466038   -0.558304
  C     -2.643647    1.593508    0.076151
  O     -2.454572    1.803056    1.244228
  C     -3.266580    2.574002   -0.868913
  C      4.274554    0.647357    1.010716
  H      4.024961   -0.273614   -1.601900
  H      3.757372   -1.604386   -0.497049
  H      2.412635   -0.963376   -1.437405
  H      1.820141    1.481935    1.362522
  H      0.092575    1.491925   -0.390753
  H      0.688849    0.013041   -1.093558
  H     -0.580870    0.318918    1.660608
  H      0.119263   -1.169189    1.083657
  H     -2.224847   -2.114961    1.600143
  H     -3.604471   -1.500193    0.691944
  H     -2.855014   -0.495977    1.946510
  H     -2.396470   -1.677791   -1.673015
  H     -0.604213   -3.246128   -1.964325
  H      0.293407   -2.565871   -0.506303
  H     -2.571939    2.797392   -1.675437
  H     -4.157888    2.139256   -1.315067
  H     -3.520575    3.480608   -0.331692
  H      5.030804    1.099471    0.366562
  H      4.729042   -0.238575    1.457610
  H      4.042351    1.350340    1.807702

 Multiplicity           Mult            ....    1
 Number of Electrons    NEL             ....   80
 Basis Dimension        Dim             ....  282

ORBITAL ENERGIES
----------------

  NO   OCC          E(Eh)            E(eV)
   0   2.0000      -1.236797       -33.6550
   1   2.0000      -1.143591       -31.1187
   2   2.0000      -0.980890       -26.6914
   3   2.0000      -0.955534       -26.0014
   4   2.0000      -0.903484       -24.5850
   5   2.0000      -0.896037       -24.3824
   6   2.0000      -0.870885       -23.6980
   7   2.0000      -0.826849       -22.4997
   8   2.0000      -0.816198       -22.2099
   9   2.0000      -0.789466       -21.4825
  10   2.0000      -0.743046       -20.2193
  11   2.0000      -0.700546       -19.0628
  12   2.0000      -0.649007       -17.6604
  13   2.0000      -0.634096       -17.2546
  14   2.0000      -0.621049       -16.8996
  15   2.0000      -0.607590       -16.5334
  16   2.0000      -0.606360       -16.4999
  17   2.0000      -0.581155       -15.8140
  18   2.0000      -0.569975       -15.5098
  19   2.0000      -0.565636       -15.3917
  20   2.0000      -0.550568       -14.9817
  21   2.0000      -0.547123       -14.8880
  22   2.0000      -0.532749       -14.4968
  23   2.0000      -0.525616       -14.3027
  24   2.0000      -0.522622       -14.2213
  25   2.0000      -0.512243       -13.9389
  26   2.0000      -0.507498       -13.8097
  27   2.0000      -0.493422       -13.4267
  28   2.0000      -0.485112       -13.2006
  29   2.0000      -0.479457       -13.0467
  30   2.0000      -0.473276       -12.8785
  31   2.0000      -0.470739       -12.8095
  32   2.0000      -0.459936       -12.5155
  33   2.0000      -0.441755       -12.0208
  34   2.0000      -0.438656       -11.9364
  35   2.0000      -0.426855       -11.6153
  36   2.0000      -0.412903       -11.2357
  37   2.0000      -0.381102       -10.3703
  38   2.0000      -0.374978       -10.2037
  39   2.0000      -0.331061        -9.0086
  40   0.0000       0.075558         2.0560
  41   0.0000       0.083216         2.2644
  42   0.0000       0.086469         2.3529
  43   0.0000       0.095799         2.6068
  44   0.0000       0.099145         2.6979

MULLIKEN ATOMIC CHARGES
-----------------------
   0 C :   -0.049699
   1 C :   -0.073317
   2 C :   -0.020326
   3 C :   -0.039771
   4 C :   -0.001266
   5 C :   -0.106632
   6 C :    0.002123
   7 C :    0.043295
   8 C :   -0.034211
   9 O :   -0.252801
  10 C :    0.217295
  11 O :   -0.322966
  12 C :   -0.054161
  13 C :   -0.049243
  14 H :    0.040290
  15 H :    0.036611
  16 H :    0.014571
  17 H :    0.009803
  18 H :    0.042891
  19 H :    0.031025
  20 H :    0.062549
  21 H :    0.034425
  22 H :    0.043095
  23 H :    0.035501
  24 H :    0.059920
  25 H :    0.025301
  26 H :    0.033431
  27 H :    0.018532
  28 H :    0.050993
  29 H :    0.053131
  30 H :    0.054861
  31 H :    0.034662
  32 H :    0.033788
  33 H :    0.026301
Sum of atomic charges:    0.0000000

LOEWDIN ATOMIC CHARGES
----------------------
   0 C :   -0.106237
   1 C :   -0.056275
   2 C :   -0.052272
   3 C :   -0.080212
   4 C :   -0.064524
   5 C :   -0.032940
   6 C :   -0.087471
   7 C :   -0.028804
   8 C :   -0.062830
   9 O :   -0.005552
  10 C :   -0.061830
  11 O :   -0.139085
  12 C :   -0.083040
  13 C :   -0.108081
  14 H :    0.050551
  15 H :    0.048916
  16 H :    0.041802
  17 H :    0.040096
  18 H :    0.047630
  19 H :    0.040142
  20 H :    0.051814
  21 H :    0.048663
  22 H :    0.053910
  23 H :    0.048008
  24 H :    0.049768
  25 H :    0.048951
  26 H :    0.040386
  27 H :    0.032994
  28 H :    0.059972
  29 H :    0.060366
  30 H :    0.060877
  31 H :    0.047891
  32 H :    0.047037
  33 H :    0.049376

  Mayer bond orders larger than 0.100000
B(  0-C ,  1-C ) :   1.0340 B(  0-C , 14-H ) :   0.9786 B(  0-C , 15-H ) :   0.9769
B(  0-C , 16-H ) :   0.9921 B(  1-C ,  2-C ) :   1.8894 B(  1-C , 13-C ) :   1.0298
B(  2-C ,  3-C ) :   1.0316 B(  2-C , 17-H ) :   0.9942 B(  3-C ,  4-C ) :   0.9653
B(  3-C , 18-H ) :   0.9843 B(  3-C , 19-H ) :   0.9905 B(  4-C ,  5-C ) :   0.9967
B(  4-C , 20-H ) :   0.9853 B(  4-C , 21-H ) :   0.9800 B(  5-C ,  6-C ) :   1.0218
B(  5-C ,  7-C ) :   1.0644 B(  5-C ,  9-O ) :   0.8712 B(  6-C , 22-H ) :   0.9783
B(  6-C , 23-H ) :   0.9842 B(  6-C , 24-H ) :   0.9791 B(  7-C ,  8-C ) :   1.9462
B(  7-C , 25-H ) :   0.9913 B(  8-C , 26-H ) :   0.9866 B(  8-C , 27-H ) :   0.9950
B(  9-O , 10-C ) :   1.1599 B( 10-C , 11-O ) :   1.9306 B( 10-C , 12-C ) :   1.0448
B( 12-C , 28-H ) :   0.9746 B( 12-C , 29-H ) :   0.9740 B( 12-C , 30-H ) :   0.9872
B( 13-C , 31-H ) :   0.9803 B( 13-C , 32-H ) :   0.9801 B( 13-C , 33-H ) :   0.9923

Dispersion correction           -0.039608106
FINAL SINGLE POINT ENERGY      -112.538261109472

DIPOLE MOMENT
-------------

Method             : SCF
Type of density    : Electron Density
Multiplicity       :   1
Irrep              :   0
Energy             :  -112.4986530030239891 Eh
Relativity type    :
Basis              : AO
                                X                 Y                 Z
Electronic contribution:     -9.160807071       2.642990948       0.300245043
Nuclear contribution   :      9.225112049      -3.098133207      -0.942863118
                        -----------------------------------------
Total Dipole Moment    :      0.064304978      -0.455142259      -0.642618075
                        -----------------------------------------
Magnitude (a.u.)       :      0.790093410
Magnitude (Debye)      :      2.008257850

VIBRATIONAL FREQUENCIES
-----------------------

Scaling factor for frequencies =  1.000000000  (already applied!)

     0:       0.00 cm**-1
     1:       0.00 cm**-1
     2:       0.00 cm**-1
     3:       0.00 cm**-1
     4:       0.00 cm**-1
     5:       0.00 cm**-1
     6:      22.79 cm**-1
     7:      32.75 cm**-1
     8:      48.48 cm**-1
     9:      68.74 cm**-1
    10:      75.75 cm**-1
    11:      92.45 cm**-1
    12:     101.33 cm**-1
    13:     138.43 cm**-1
    14:     145.30 cm**-1
    15:     171.63 cm**-1
    16:     194.69 cm**-1
    17:     218.99 cm**-1
    18:     246.32 cm**-1
    19:     293.81 cm**-1
    20:     310.39 cm**-1
    21:     316.44 cm**-1
    22:     341.13 cm**-1
    23:     360.55 cm**-1
    24:     383.67 cm**-1
    25:     406.56 cm**-1
    26:     437.64 cm**-1
    27:     479.40 cm**-1
    28:     493.98 cm**-1
    29:     542.90 cm**-1
    30:     581.56 cm**-1
    31:     630.34 cm**-1
    32:     668.16 cm**-1
    33:     712.80 cm**-1
    34:     775.06 cm**-1
    35:     799.38 cm**-1
    36:     839.86 cm**-1
    37:     886.23 cm**-1
    38:     894.91 cm**-1
    39:     974.17 cm**-1
    40:     975.72 cm**-1
    41:     985.84 cm**-1
    42:     997.48 cm**-1
    43:    1026.18 cm**-1
    44:    1035.33 cm**-1
    45:    1052.58 cm**-1
    46:    1055.46 cm**-1
    47:    1069.04 cm**-1
    48:    1089.05 cm**-1
    49:    1094.16 cm**-1
    50:    1098.32 cm**-1
    51:    1128.99 cm**-1
    52:    1149.05 cm**-1
    53:    1155.95 cm**-1
    54:    1188.42 cm**-1
    55:    1241.05 cm**-1
    56:    1285.90 cm**-1
    57:    1320.89 cm**-1
    58:    1332.93 cm**-1
    59:    1338.95 cm**-1
    60:    1355.71 cm**-1
    61:    1375.34 cm**-1
    62:    1405.54 cm**-1
    63:    1435.78 cm**-1
    64:    1441.54 cm**-1
    65:    1449.35 cm**-1
    66:    1450.71 cm**-1
    67:    1458.99 cm**-1
    68:    1476.87 cm**-1
    69:    1501.85 cm**-1
    70:    1502.89 cm**-1
    71:    1508.19 cm**-1
    72:    1509.94 cm**-1
    73:    1515.77 cm**-1
    74:    1523.23 cm**-1
    75:    1525.87 cm**-1
    76:    1530.73 cm**-1
    77:    1534.92 cm**-1
    78:    1537.84 cm**-1
    79:    1775.07 cm**-1
    80:    1808.84 cm**-1
    81:    1867.61 cm**-1
    82:    3093.05 cm**-1
    83:    3097.52 cm**-1
    84:    3115.97 cm**-1
    85:    3117.81 cm**-1
    86:    3133.30 cm**-1
    87:    3135.53 cm**-1
    88:    3165.90 cm**-1
    89:    3168.83 cm**-1
    90:    3184.72 cm**-1
    91:    3194.85 cm**-1
    92:    3203.43 cm**-1
    93:    3207.83 cm**-1
    94:    3211.01 cm**-1
    95:    3215.13 cm**-1
    96:    3226.81 cm**-1
    97:    3229.28 cm**-1
    98:    3234.01 cm**-1
    99:    3237.48 cm**-1
   100:    3264.12 cm**-1
   101:    3311.63 cm**-1

IR SPECTRUM
-----------

 Mode   freq       eps      Int      T**2         TX        TY        TZ
       cm**-1   L/(mol*cm) km/mol    a.u.
----------------------------------------------------------------------------
  6:     22.79   0.000025    0.13  0.000340  ( 0.015509  0.002811 -0.009572)
  7:     32.75   0.000014    0.07  0.000134  (-0.009370  0.006717 -0.000975)
  8:     48.48   0.000433    2.19  0.002788  ( 0.048359  0.018018 -0.011175)
  9:     68.74   0.000008    0.04  0.000038  (-0.005748 -0.001134  0.001892)
 10:     75.75   0.000206    1.04  0.000850  ( 0.018710  0.016924 -0.014610)
 11:     92.45   0.000457    2.31  0.001544  ( 0.038375  0.006226 -0.005722)
 12:    101.33   0.000115    0.58  0.000355  (-0.018030 -0.001649 -0.005209)
 13:    138.43   0.000051    0.26  0.000115  (-0.008637 -0.004070  0.004867)
 14:    145.30   0.000039    0.20  0.000084  ( 0.008102 -0.004196 -0.000565)
 15:    171.63   0.000477    2.41  0.000866  ( 0.021476 -0.015295 -0.013090)
 16:    194.69   0.000433    2.19  0.000694  (-0.001062 -0.026317 -0.000180)
 17:    218.99   0.000558    2.82  0.000796  ( 0.006103  0.025072  0.011401)
 18:    246.32   0.000003    0.02  0.000004  ( 0.001421  0.001506 -0.000005)
 19:    293.81   0.000266    1.34  0.000282  ( 0.002650 -0.016565 -0.000999)
 20:    310.39   0.000225    1.14  0.000226  ( 0.002290 -0.013588  0.006007)
 21:    316.44   0.000616    3.11  0.000607  (-0.004871  0.024159 -0.000016)
 22:    341.13   0.000798    4.03  0.000730  (-0.023317  0.006584  0.011961)
 23:    360.55   0.000485    2.45  0.000420  (-0.000212  0.010126 -0.017818)
 24:    383.67   0.000380    1.92  0.000309  ( 0.016768 -0.005204 -0.000787)
 25:    406.56   0.000097    0.49  0.000075  (-0.005109  0.005661  0.004069)
 26:    437.64   0.000795    4.02  0.000567  (-0.007127 -0.021152  0.008299)
 27:    479.40   0.000150    0.76  0.000098  ( 0.004347  0.008648 -0.002017)
 28:    493.98   0.000260    1.32  0.000164  ( 0.004280  0.006366 -0.010278)
 29:    542.90   0.001349    6.82  0.000775  (-0.022881  0.015695  0.002355)
 30:    581.56   0.000610    3.08  0.000327  (-0.010002 -0.009355  0.011813)
 31:    630.34   0.001703    8.60  0.000843  (-0.028915 -0.002371  0.001106)
 32:    668.16   0.000774    3.91  0.000362  (-0.007652  0.015370 -0.008179)
 33:    712.80   0.002231   11.27  0.000977  (-0.015660 -0.022538  0.014951)
 34:    775.06   0.000647    3.27  0.000260  ( 0.003441 -0.014410 -0.006389)
 35:    799.38   0.001454    7.35  0.000567  (-0.011572  0.013209 -0.016095)
 36:    839.86   0.002128   10.75  0.000791  (-0.002288  0.014732 -0.023841)
 37:    886.23   0.000933    4.71  0.000329  (-0.015106 -0.009885  0.001614)
 38:    894.91   0.002325   11.75  0.000811  (-0.004754  0.022415 -0.016901)
 39:    974.17   0.009088   45.93  0.002911  ( 0.027356  0.037706 -0.027221)
 40:    975.72   0.000457    2.31  0.000146  ( 0.001840  0.009412 -0.007367)
 41:    985.84   0.000137    0.69  0.000043  ( 0.005721  0.001465  0.002895)
 42:    997.48   0.001591    8.04  0.000498  ( 0.002213 -0.017423 -0.013761)
 43:   1026.18   0.000061    0.31  0.000019  (-0.002977 -0.001345  0.002816)
 44:   1035.33   0.000935    4.73  0.000282  (-0.005092 -0.013376  0.008774)
 45:   1052.58   0.003291   16.63  0.000976  ( 0.000635  0.031116 -0.002673)
 46:   1055.46   0.001505    7.61  0.000445  ( 0.010176  0.007137 -0.017048)
 47:   1069.04   0.002415   12.20  0.000705  (-0.015814  0.021287  0.001277)
 48:   1089.05   0.004878   24.65  0.001398  (-0.021774  0.030067 -0.004430)
 49:   1094.16   0.001907    9.64  0.000544  ( 0.022775  0.001649 -0.004733)
 50:   1098.32   0.001800    9.10  0.000511  (-0.007049 -0.021481  0.000498)
 51:   1128.99   0.000051    0.26  0.000014  (-0.003406  0.000389  0.001536)
 52:   1149.05   0.013966   70.58  0.003793  (-0.017069  0.058998 -0.004556)
 53:   1155.95   0.006973   35.24  0.001882  ( 0.026705 -0.033793  0.005226)
 54:   1188.42   0.001835    9.27  0.000482  (-0.019659 -0.006354  0.007416)
 55:   1241.05   0.017306   87.46  0.004352  (-0.036107  0.053853  0.012157)
 56:   1285.90   0.006073   30.69  0.001474  (-0.026289  0.027324 -0.006014)
 57:   1320.89   0.005414   27.36  0.001279  (-0.010546  0.034015 -0.003294)
 58:   1332.93   0.014919   75.39  0.003493  (-0.011909  0.055898  0.015044)
 59:   1338.95   0.051116  258.32  0.011914  (-0.053712  0.094195  0.012484)
 60:   1355.71   0.001553    7.85  0.000358  (-0.005637 -0.017446 -0.004629)
 61:   1375.34   0.001292    6.53  0.000293  (-0.002813  0.015972  0.005499)
 62:   1405.54   0.001445    7.30  0.000321  (-0.017868 -0.000564  0.001089)
 63:   1435.78   0.003349   16.92  0.000728  (-0.019591 -0.005649  0.017667)
 64:   1441.54   0.019185   96.95  0.004153  (-0.024534  0.058597 -0.010842)
 65:   1449.35   0.013369   67.56  0.002878  ( 0.023710 -0.047550  0.007438)
 66:   1450.71   0.002626   13.27  0.000565  ( 0.015870 -0.010665  0.014120)
 67:   1458.99   0.002152   10.88  0.000460  (-0.003474  0.007964  0.019617)
 68:   1476.87   0.001243    6.28  0.000263  ( 0.007777 -0.011778 -0.007962)
 69:   1501.85   0.004012   20.28  0.000834  ( 0.008297  0.001232  0.027629)
 70:   1502.89   0.000075    0.38  0.000016  ( 0.001382  0.003526 -0.001127)
 71:   1508.19   0.002802   14.16  0.000580  (-0.022098 -0.008142  0.005008)
 72:   1509.94   0.000487    2.46  0.000101  (-0.005366  0.000166 -0.008474)
 73:   1515.77   0.000506    2.56  0.000104  (-0.001957 -0.008547 -0.005216)
 74:   1523.23   0.004127   20.86  0.000846  (-0.006800 -0.020258  0.019722)
 75:   1525.87   0.002785   14.07  0.000570  ( 0.016834 -0.016881 -0.001080)
 76:   1530.73   0.001620    8.19  0.000330  (-0.007630  0.002463 -0.016309)
 77:   1534.92   0.000877    4.43  0.000178  (-0.007514  0.009101 -0.006253)
 78:   1537.84   0.005121   25.88  0.001039  (-0.019828  0.007919 -0.024152)
 79:   1775.07   0.001153    5.83  0.000203  ( 0.007192 -0.011760 -0.003568)
 80:   1808.84   0.000570    2.88  0.000098  ( 0.008605 -0.004262 -0.002491)
 81:   1867.61   0.053917  272.47  0.009009  ( 0.003630  0.034425  0.088379)
 82:   3093.05   0.005948   30.06  0.000600  (-0.018786 -0.007997 -0.013538)
 83:   3097.52   0.009784   49.44  0.000986  ( 0.027365 -0.012580 -0.008864)
 84:   3115.97   0.002798   14.14  0.000280  ( 0.001177 -0.012343  0.011246)
 85:   3117.81   0.002673   13.51  0.000268  (-0.015281 -0.005425  0.002154)
 86:   3133.30   0.004600   23.25  0.000458  (-0.004166  0.014652 -0.015038)
 87:   3135.53   0.000338    1.71  0.000034  (-0.002886  0.003318 -0.003787)
 88:   3165.90   0.001337    6.76  0.000132  ( 0.002117  0.008422 -0.007507)
 89:   3168.83   0.003202   16.18  0.000315  ( 0.003082  0.013469 -0.011155)
 90:   3184.72   0.000295    1.49  0.000029  ( 0.004120  0.003453 -0.000108)
 91:   3194.85   0.000384    1.94  0.000038  (-0.005404 -0.000136 -0.002882)
 92:   3203.43   0.001095    5.53  0.000107  ( 0.000435  0.007901  0.006635)
 93:   3207.83   0.005448   27.53  0.000530  (-0.005755  0.015598  0.015925)
 94:   3211.01   0.001634    8.26  0.000159  (-0.010743  0.002834 -0.005945)
 95:   3215.13   0.001642    8.30  0.000159  (-0.010349  0.006674 -0.002784)
 96:   3226.81   0.003232   16.33  0.000313  (-0.012429 -0.005917 -0.011094)
 97:   3229.28   0.000107    0.54  0.000010  (-0.003100 -0.000586  0.000624)
 98:   3234.01   0.000935    4.73  0.000090  ( 0.006301  0.004889  0.005161)
 99:   3237.48   0.000418    2.11  0.000040  ( 0.001885 -0.004622 -0.003918)
100:   3264.12   0.000274    1.38  0.000026  (-0.002298  0.004571 -0.000156)
101:   3311.63   0.000641    3.24  0.000060  ( 0.004280  0.002758  0.005875)

--------------------------
THERMOCHEMISTRY AT 298.15K
--------------------------

Temperature         ...   298.15 K
Pressure            ...     1.00 atm
Total Mass          ...   196.29 AMU
Quasi RRHO          ...     True
Cut-Off Frequency   ...     1.00 cm^-1

Throughout the following assumptions are being made:
  (1) The electronic state is orbitally nondegenerate
  (2) There are no thermally accessible electronically excited states
  (3) Hindered rotations indicated by low frequency modes are not
      treated as such but are treated as vibrations and this may
      cause some error
  (4) All equations used are the standard statistical mechanics
      equations for an ideal gas
  (5) All vibrations are strictly harmonic

freq.      22.79  E(vib)   ...       0.56
freq.      32.75  E(vib)   ...       0.55
freq.      48.48  E(vib)   ...       0.53
freq.      68.74  E(vib)   ...       0.50
freq.      75.75  E(vib)   ...       0.49
freq.      92.45  E(vib)   ...       0.47
freq.     101.33  E(vib)   ...       0.46
freq.     138.43  E(vib)   ...       0.42
freq.     145.30  E(vib)   ...       0.41
freq.     171.63  E(vib)   ...       0.38
freq.     194.69  E(vib)   ...       0.36
freq.     218.99  E(vib)   ...       0.33
freq.     246.32  E(vib)   ...       0.31
freq.     293.81  E(vib)   ...       0.27
freq.     310.39  E(vib)   ...       0.26
freq.     316.44  E(vib)   ...       0.25
freq.     341.13  E(vib)   ...       0.23
freq.     360.55  E(vib)   ...       0.22
freq.     383.67  E(vib)   ...       0.20
freq.     406.56  E(vib)   ...       0.19
freq.     437.64  E(vib)   ...       0.17
freq.     479.40  E(vib)   ...       0.15
freq.     493.98  E(vib)   ...       0.14
freq.     542.90  E(vib)   ...       0.12
freq.     581.56  E(vib)   ...       0.11
freq.     630.34  E(vib)   ...       0.09
freq.     668.16  E(vib)   ...       0.08
freq.     712.80  E(vib)   ...       0.07
freq.     775.06  E(vib)   ...       0.05
freq.     799.38  E(vib)   ...       0.05
freq.     839.86  E(vib)   ...       0.04
freq.     886.23  E(vib)   ...       0.04
freq.     894.91  E(vib)   ...       0.03
freq.     974.17  E(vib)   ...       0.03
freq.     975.72  E(vib)   ...       0.03
freq.     985.84  E(vib)   ...       0.02
freq.     997.48  E(vib)   ...       0.02
freq.    1026.18  E(vib)   ...       0.02
freq.    1035.33  E(vib)   ...       0.02
freq.    1052.58  E(vib)   ...       0.02
freq.    1055.46  E(vib)   ...       0.02
freq.    1069.04  E(vib)   ...       0.02
freq.    1089.05  E(vib)   ...       0.02
freq.    1094.16  E(vib)   ...       0.02
freq.    1098.32  E(vib)   ...       0.02
freq.    1128.99  E(vib)   ...       0.01
freq.    1149.05  E(vib)   ...       0.01
freq.    1155.95  E(vib)   ...       0.01
freq.    1188.42  E(vib)   ...       0.01
freq.    1241.05  E(vib)   ...       0.01
freq.    1285.90  E(vib)   ...       0.01
freq.    1320.89  E(vib)   ...       0.01
freq.    1332.93  E(vib)   ...       0.01
freq.    1338.95  E(vib)   ...       0.01
freq.    1355.71  E(vib)   ...       0.01
freq.    1375.34  E(vib)   ...       0.01
freq.    1405.54  E(vib)   ...       0.00
freq.    1435.78  E(vib)   ...       0.00
freq.    1441.54  E(vib)   ...       0.00
freq.    1449.35  E(vib)   ...       0.00
freq.    1450.71  E(vib)   ...       0.00
freq.    1458.99  E(vib)   ...       0.00
freq.    1476.87  E(vib)   ...       0.00
freq.    1501.85  E(vib)   ...       0.00
freq.    1502.89  E(vib)   ...       0.00
freq.    1508.19  E(vib)   ...       0.00
freq.    1509.94  E(vib)   ...       0.00
freq.    1515.77  E(vib)   ...       0.00
freq.    1523.23  E(vib)   ...       0.00
freq.    1525.87  E(vib)   ...       0.00
freq.    1530.73  E(vib)   ...       0.00
freq.    1534.92  E(vib)   ...       0.00
freq.    1537.84  E(vib)   ...       0.00
freq.    1775.07  E(vib)   ...       0.00
freq.    1808.84  E(vib)   ...       0.00
freq.    1867.61  E(vib)   ...       0.00
freq.    3093.05  E(vib)   ...       0.00
freq.    3097.52  E(vib)   ...       0.00
freq.    3115.97  E(vib)   ...       0.00
freq.    3117.81  E(vib)   ...       0.00
freq.    3133.30  E(vib)   ...       0.00
freq.    3135.53  E(vib)   ...       0.00
freq.    3165.90  E(vib)   ...       0.00
freq.    3168.83  E(vib)   ...       0.00
freq.    3184.72  E(vib)   ...       0.00
freq.    3194.85  E(vib)   ...       0.00
freq.    3203.43  E(vib)   ...       0.00
freq.    3207.83  E(vib)   ...       0.00
freq.    3211.01  E(vib)   ...       0.00
freq.    3215.13  E(vib)   ...       0.00
freq.    3226.81  E(vib)   ...       0.00
freq.    3229.28  E(vib)   ...       0.00
freq.    3234.01  E(vib)   ...       0.00
freq.    3237.48  E(vib)   ...       0.00
freq.    3264.12  E(vib)   ...       0.00
freq.    3311.63  E(vib)   ...       0.00

------------
INNER ENERGY
------------

The inner energy is: U= E(el) + E(ZPE) + E(vib) + E(rot) + E(trans)
    E(el)   - is the total energy from the electronic structure calculation
              = E(kin-el) + E(nuc-el) + E(el-el) + E(nuc-nuc)
    E(ZPE)  - the the zero temperature vibrational energy from the frequency calculation
    E(vib)  - the the finite temperature correction to E(ZPE) due to population
              of excited vibrational states
    E(rot)  - is the rotational thermal energy
    E(trans)- is the translational thermal energy

Summary of contributions to the inner energy U:
Electronic energy                ...   -112.53826111 Eh
Zero point energy                ...      0.30424619 Eh     190.92 kcal/mol
Thermal vibrational correction   ...      0.01422443 Eh       8.93 kcal/mol
Thermal rotational correction    ...      0.00141627 Eh       0.89 kcal/mol
Thermal translational correction ...      0.00141627 Eh       0.89 kcal/mol
-----------------------------------------------------------------------
Total thermal energy                   -112.21695795 Eh

Summary of corrections to the electronic energy:
(perhaps to be used in another calculation)
Total thermal correction                  0.01705697 Eh      10.70 kcal/mol
Non-thermal (ZPE) correction              0.30424619 Eh     190.92 kcal/mol
-----------------------------------------------------------------------
Total correction                          0.32130316 Eh     201.62 kcal/mol

--------
ENTHALPY
--------

The enthalpy is H = U + kB*T
                kB is Boltzmann's constant
Total thermal energy              ...   -112.21695795 Eh
Thermal Enthalpy correction       ...      0.00094421 Eh       0.59 kcal/mol
-----------------------------------------------------------------------
Total Enthalpy                    ...   -112.21601374 Eh

Note: Only C1 symmetry has been detected, increase convergence thresholds
      if your molecule has a higher symmetry. Symmetry factor of 1.0 is

Rotational constants in cm-1:     0.032277     0.012449     0.010467

                             ****ORCA TERMINATED NORMALLY****
TOTAL RUN TIME: 0 days 0 hours 40 minutes 5 seconds 985 msec
