                         Program Version 6.0.1  -  RELEASE   -
|  1> ! wB97X-3c OPT FREQ TightSCF
|  2> %pal
|  3>   nprocs 40
|  4> end
|  5> * xyz 0 1
|  6> C     -3.575053    -0.334056     0.030475
|  7> C     -2.407066     0.597914    -0.162690
|  8> C     -1.222992     0.279324     0.401156
|  9> C      0.010930     1.138691     0.268084
| 10> C      1.182693     0.522994     0.984935
| 11> C      1.928800    -0.491909     0.503032
| 12> C      1.656099    -1.109718    -0.850784
| 13> C      3.088199    -0.946541     1.313643
| 14> C      4.094727    -1.669743     0.821769
| 15> C     -2.580492     1.858033    -0.976919
| 16> H     -3.800770    -0.433276     1.113412
| 17> H     -4.486508     0.037862    -0.482053
| 18> H     -3.328155    -1.335264    -0.382123
| 19> H     -1.150864    -0.642122     0.976099
| 20> H     -0.197064     2.128584     0.727606
| 21> H      0.263637     1.308386    -0.800450
| 22> H      1.436838     0.955053     1.946892
| 23> H      1.913352    -2.189220    -0.843326
| 24> H      2.263433    -0.593333    -1.623047
| 25> H      0.586336    -1.053003    -1.134153
| 26> H      3.144767    -0.652910     2.355810
| 27> H      4.137771    -1.965992    -0.217294
| 28> H      4.914537    -1.956705     1.467524
| 29> H     -2.354812     2.747504    -0.352070
| 30> H     -3.619315     1.959743    -1.353875
| 31> H     -1.899029     1.839704    -1.853130
| 32> *
| 33>
| 34>                          ****END OF INPUT****
 Total Charge           Charge          ....    0
 Multiplicity           Mult            ....    1
 Number of Electrons    NEL             ....   56
Dispersion correction           -0.027316974
FINAL SINGLE POINT ENERGY       -66.557370759719
Dispersion correction             ... done (  0.1 sec)
Dispersion correction           -0.027461316
FINAL SINGLE POINT ENERGY       -66.563331742595
Dispersion correction             ... done (  0.1 sec)
Dispersion correction           -0.027451165
FINAL SINGLE POINT ENERGY       -66.564319078052
Dispersion correction             ... done (  0.1 sec)
FINAL SINGLE POINT ENERGY       -66.564831909314
FINAL SINGLE POINT ENERGY       -66.565039469202
FINAL SINGLE POINT ENERGY       -66.565235298476
FINAL SINGLE POINT ENERGY       -66.565316314885
FINAL SINGLE POINT ENERGY       -66.565365982351
FINAL SINGLE POINT ENERGY       -66.565645913116
FINAL SINGLE POINT ENERGY       -66.565852460618
FINAL SINGLE POINT ENERGY       -66.571130634185
FINAL SINGLE POINT ENERGY       -66.571393354766
FINAL SINGLE POINT ENERGY       -66.571055376584
FINAL SINGLE POINT ENERGY       -66.571616466795
FINAL SINGLE POINT ENERGY       -66.571654353895
FINAL SINGLE POINT ENERGY       -66.571664422798
FINAL SINGLE POINT ENERGY       -66.571670172609
Dispersion correction             ... done (  0.1 sec)
Dispersion correction           -0.027703398
FINAL SINGLE POINT ENERGY       -66.571671582215
Dispersion correction             ... done (  0.1 sec)
Dispersion correction           -0.027699547
FINAL SINGLE POINT ENERGY       -66.571671961992
Dispersion correction             ... done (  0.1 sec)
                    ***********************HURRAY********************

CARTESIAN COORDINATES (ANGSTROEM)
---------------------------------
  C     -3.421706   -0.421150    0.082874
  C     -2.220121    0.460197   -0.073515
  C     -1.315326    0.552423    0.896057
  C     -0.052469    1.361684    0.909548
  C      1.139064    0.532454    1.295306
  C      1.838593   -0.269837    0.491251
  C      1.527896   -0.460540   -0.958464
  C      2.970329   -1.012816    1.052661
  C      3.763292   -1.844220    0.387274
  C     -2.158330    1.188074   -1.379932
  H     -4.342233    0.159075   -0.000284
  H     -3.451317   -1.176418   -0.704421
  H     -3.425546   -0.930957    1.043700
  H     -1.483713   -0.034220    1.794069
  H     -0.158676    2.170275    1.635959
  H      0.116856    1.841714   -0.051107
  H      1.437498    0.578597    2.337548
  H      1.324990   -1.511215   -1.166646
  H      2.374678   -0.164039   -1.578062
  H      0.658111    0.109263   -1.268407
  H      3.156598   -0.849048    2.108658
  H      3.630645   -2.049632   -0.666630
  H      4.579061   -2.349565    0.885398
  H     -1.288467    1.829859   -1.478850
  H     -3.045337    1.811439   -1.505927
  H     -2.154370    0.478604   -2.209536

 Multiplicity           Mult            ....    1
 Number of Electrons    NEL             ....   56
 Basis Dimension        Dim             ....  210

ORBITAL ENERGIES
----------------

  NO   OCC          E(Eh)            E(eV)
   0   2.0000      -0.975806       -26.5530
   1   2.0000      -0.953615       -25.9492
   2   2.0000      -0.903353       -24.5815
   3   2.0000      -0.860923       -23.4269
   4   2.0000      -0.829312       -22.5667
   5   2.0000      -0.820854       -22.3366
   6   2.0000      -0.773318       -21.0430
   7   2.0000      -0.698621       -19.0105
   8   2.0000      -0.641363       -17.4524
   9   2.0000      -0.639876       -17.4119
  10   2.0000      -0.610387       -16.6095
  11   2.0000      -0.577461       -15.7135
  12   2.0000      -0.561548       -15.2805
  13   2.0000      -0.555243       -15.1089
  14   2.0000      -0.545063       -14.8319
  15   2.0000      -0.529343       -14.4041
  16   2.0000      -0.516748       -14.0614
  17   2.0000      -0.500119       -13.6089
  18   2.0000      -0.494825       -13.4649
  19   2.0000      -0.483778       -13.1643
  20   2.0000      -0.478784       -13.0284
  21   2.0000      -0.471152       -12.8207
  22   2.0000      -0.460245       -12.5239
  23   2.0000      -0.439681       -11.9643
  24   2.0000      -0.434382       -11.8201
  25   2.0000      -0.408644       -11.1198
  26   2.0000      -0.337741        -9.1904
  27   2.0000      -0.314453        -8.5567
  28   0.0000       0.055094         1.4992
  29   0.0000       0.084058         2.2873
  30   0.0000       0.094986         2.5847
  31   0.0000       0.102876         2.7994
  32   0.0000       0.106188         2.8895

MULLIKEN ATOMIC CHARGES
-----------------------
   0 C :   -0.048672
   1 C :   -0.081277
   2 C :   -0.008664
   3 C :   -0.090956
   4 C :   -0.022034
   5 C :   -0.051638
   6 C :   -0.051240
   7 C :   -0.020574
   8 C :   -0.050161
   9 C :   -0.063730
  10 H :    0.034617
  11 H :    0.034528
  12 H :    0.026151
  13 H :    0.015512
  14 H :    0.053565
  15 H :    0.039401
  16 H :    0.016968
  17 H :    0.052602
  18 H :    0.050924
  19 H :    0.011391
  20 H :    0.007696
  21 H :    0.016791
  22 H :    0.026198
  23 H :    0.023266
  24 H :    0.041630
  25 H :    0.037704
Sum of atomic charges:   -0.0000000

LOEWDIN ATOMIC CHARGES
----------------------
   0 C :   -0.106917
   1 C :   -0.058019
   2 C :   -0.050624
   3 C :   -0.095424
   4 C :   -0.030088
   5 C :   -0.053480
   6 C :   -0.099733
   7 C :   -0.051373
   8 C :   -0.077035
   9 C :   -0.108445
  10 H :    0.047695
  11 H :    0.047894
  12 H :    0.049518
  13 H :    0.039653
  14 H :    0.054148
  15 H :    0.043770
  16 H :    0.038243
  17 H :    0.053190
  18 H :    0.050999
  19 H :    0.048015
  20 H :    0.048374
  21 H :    0.031782
  22 H :    0.036027
  23 H :    0.040979
  24 H :    0.051782
  25 H :    0.049069

  Mayer bond orders larger than 0.100000
B(  0-C ,  1-C ) :   1.0310 B(  0-C , 10-H ) :   0.9805 B(  0-C , 11-H ) :   0.9795
B(  0-C , 12-H ) :   0.9922 B(  1-C ,  2-C ) :   1.8903 B(  1-C ,  9-C ) :   1.0354
B(  2-C ,  3-C ) :   1.0149 B(  2-C , 13-H ) :   0.9904 B(  3-C ,  4-C ) :   1.0136
B(  3-C , 14-H ) :   0.9811 B(  3-C , 15-H ) :   0.9851 B(  4-C ,  5-C ) :   1.8232
B(  4-C , 16-H ) :   0.9936 B(  5-C ,  6-C ) :   1.0371 B(  5-C ,  7-C ) :   1.1418
B(  6-C , 17-H ) :   0.9727 B(  6-C , 18-H ) :   0.9729 B(  6-C , 19-H ) :   0.9955
B(  7-C ,  8-C ) :   1.8739 B(  7-C , 20-H ) :   0.9973 B(  8-C , 21-H ) :   0.9974
B(  8-C , 22-H ) :   0.9918 B(  9-C , 23-H ) :   0.9886 B(  9-C , 24-H ) :   0.9797
B(  9-C , 25-H ) :   0.9774

Dispersion correction           -0.027699513
FINAL SINGLE POINT ENERGY       -66.571672031054

DIPOLE MOMENT
-------------

Method             : SCF
Type of density    : Electron Density
Multiplicity       :   1
Irrep              :   0
Energy             :   -66.5439725184323549 Eh
Relativity type    :
Basis              : AO
                                X                 Y                 Z
Electronic contribution:      5.682924830       0.368046185       5.524349826
Nuclear contribution   :     -5.960040752      -0.248242998      -5.699127410
                        -----------------------------------------
Total Dipole Moment    :     -0.277115923       0.119803187      -0.174777584
                        -----------------------------------------
Magnitude (a.u.)       :      0.348845585
Magnitude (Debye)      :      0.886695009

VIBRATIONAL FREQUENCIES
-----------------------

Scaling factor for frequencies =  1.000000000  (already applied!)

     0:       0.00 cm**-1
     1:       0.00 cm**-1
     2:       0.00 cm**-1
     3:       0.00 cm**-1
     4:       0.00 cm**-1
     5:       0.00 cm**-1
     6:      32.90 cm**-1
     7:      42.44 cm**-1
     8:      66.13 cm**-1
     9:     128.77 cm**-1
    10:     135.40 cm**-1
    11:     174.86 cm**-1
    12:     183.36 cm**-1
    13:     218.02 cm**-1
    14:     258.45 cm**-1
    15:     290.96 cm**-1
    16:     329.96 cm**-1
    17:     349.77 cm**-1
    18:     410.35 cm**-1
    19:     444.99 cm**-1
    20:     462.89 cm**-1
    21:     534.28 cm**-1
    22:     547.96 cm**-1
    23:     580.03 cm**-1
    24:     701.80 cm**-1
    25:     782.88 cm**-1
    26:     823.90 cm**-1
    27:     871.26 cm**-1
    28:     920.14 cm**-1
    29:     949.67 cm**-1
    30:     974.22 cm**-1
    31:     986.29 cm**-1
    32:    1004.27 cm**-1
    33:    1033.55 cm**-1
    34:    1045.83 cm**-1
    35:    1067.20 cm**-1
    36:    1081.90 cm**-1
    37:    1085.47 cm**-1
    38:    1125.46 cm**-1
    39:    1128.29 cm**-1
    40:    1157.59 cm**-1
    41:    1212.37 cm**-1
    42:    1275.46 cm**-1
    43:    1301.17 cm**-1
    44:    1347.33 cm**-1
    45:    1359.28 cm**-1
    46:    1409.53 cm**-1
    47:    1416.88 cm**-1
    48:    1450.80 cm**-1
    49:    1458.75 cm**-1
    50:    1467.77 cm**-1
    51:    1476.17 cm**-1
    52:    1501.98 cm**-1
    53:    1509.38 cm**-1
    54:    1513.78 cm**-1
    55:    1517.25 cm**-1
    56:    1522.80 cm**-1
    57:    1526.78 cm**-1
    58:    1537.75 cm**-1
    59:    1733.06 cm**-1
    60:    1786.84 cm**-1
    61:    1806.16 cm**-1
    62:    3093.53 cm**-1
    63:    3097.26 cm**-1
    64:    3107.71 cm**-1
    65:    3108.74 cm**-1
    66:    3165.44 cm**-1
    67:    3169.95 cm**-1
    68:    3183.20 cm**-1
    69:    3185.52 cm**-1
    70:    3203.60 cm**-1
    71:    3209.07 cm**-1
    72:    3212.71 cm**-1
    73:    3216.64 cm**-1
    74:    3226.08 cm**-1
    75:    3228.59 cm**-1
    76:    3234.50 cm**-1
    77:    3315.21 cm**-1

IR SPECTRUM
-----------

 Mode   freq       eps      Int      T**2         TX        TY        TZ
       cm**-1   L/(mol*cm) km/mol    a.u.
----------------------------------------------------------------------------
  6:     32.90   0.000003    0.01  0.000025  ( 0.004098  0.002046 -0.001896)
  7:     42.44   0.000018    0.09  0.000135  ( 0.005115 -0.010411 -0.000144)
  8:     66.13   0.000014    0.07  0.000064  (-0.002434 -0.007557  0.001003)
  9:    128.77   0.000081    0.41  0.000197  (-0.010652  0.006065  0.006805)
 10:    135.40   0.000012    0.06  0.000027  ( 0.003827  0.003529  0.000577)
 11:    174.86   0.000079    0.40  0.000141  ( 0.000655  0.011786  0.001316)
 12:    183.36   0.000115    0.58  0.000196  (-0.009182  0.006282  0.008496)
 13:    218.02   0.000165    0.84  0.000237  (-0.013551  0.007142 -0.001474)
 14:    258.45   0.000361    1.82  0.000435  (-0.019433  0.004300  0.006263)
 15:    290.96   0.000151    0.76  0.000161  ( 0.000747 -0.012427 -0.002543)
 16:    329.96   0.000286    1.45  0.000271  (-0.002486 -0.015990 -0.002981)
 17:    349.77   0.000270    1.36  0.000241  ( 0.006514  0.013221  0.004868)
 18:    410.35   0.000621    3.14  0.000472  (-0.004679 -0.020595  0.005122)
 19:    444.99   0.001128    5.70  0.000791  (-0.025908 -0.009955  0.004551)
 20:    462.89   0.000809    4.09  0.000545  ( 0.012364 -0.016153 -0.011474)
 21:    534.28   0.000488    2.47  0.000285  ( 0.007997 -0.008968  0.011860)
 22:    547.96   0.000081    0.41  0.000046  ( 0.004176  0.004620 -0.002719)
 23:    580.03   0.000260    1.31  0.000140  ( 0.008653  0.004218 -0.006863)
 24:    701.80   0.000105    0.53  0.000047  ( 0.001084 -0.004304  0.005214)
 25:    782.88   0.000661    3.34  0.000263  (-0.000415  0.011111  0.011820)
 26:    823.90   0.000361    1.82  0.000137  (-0.004156 -0.009654 -0.005110)
 27:    871.26   0.002562   12.95  0.000918  ( 0.023955 -0.007038 -0.017151)
 28:    920.14   0.004541   22.95  0.001540  (-0.023927 -0.031083 -0.001153)
 29:    949.67   0.009310   47.05  0.003059  ( 0.033666  0.041992 -0.012750)
 30:    974.22   0.003200   16.17  0.001025  ( 0.020105 -0.024881  0.001286)
 31:    986.29   0.000068    0.34  0.000022  ( 0.002839  0.003421 -0.001320)
 32:   1004.27   0.000271    1.37  0.000084  (-0.004109  0.002602 -0.007790)
 33:   1033.55   0.000821    4.15  0.000248  ( 0.008715 -0.011038 -0.007081)
 34:   1045.83   0.003212   16.23  0.000959  ( 0.018348  0.024041 -0.006625)
 35:   1067.20   0.000882    4.46  0.000258  (-0.011898 -0.008039 -0.007198)
 36:   1081.90   0.000057    0.29  0.000017  (-0.000607 -0.003547  0.001905)
 37:   1085.47   0.000051    0.26  0.000015  ( 0.001316 -0.002947 -0.002084)
 38:   1125.46   0.001218    6.15  0.000338  ( 0.012719 -0.012773 -0.003573)
 39:   1128.29   0.000059    0.30  0.000016  ( 0.002639 -0.002976 -0.000611)
 40:   1157.59   0.004470   22.59  0.001205  ( 0.031670 -0.009585  0.010492)
 41:   1212.37   0.000285    1.44  0.000073  (-0.006019 -0.005951 -0.001285)
 42:   1275.46   0.000587    2.97  0.000144  ( 0.010774  0.004690 -0.002356)
 43:   1301.17   0.000291    1.47  0.000070  (-0.000526  0.006213  0.005553)
 44:   1347.33   0.000163    0.83  0.000038  ( 0.005812 -0.001363 -0.001483)
 45:   1359.28   0.000266    1.34  0.000061  ( 0.001637  0.000643  0.007607)
 46:   1409.53   0.000358    1.81  0.000079  ( 0.003959 -0.000882  0.007924)
 47:   1416.88   0.000819    4.14  0.000180  (-0.010705 -0.003091 -0.007501)
 48:   1450.80   0.001189    6.01  0.000256  (-0.006953 -0.013688  0.004477)
 49:   1458.75   0.002337   11.81  0.000500  (-0.004658  0.012447 -0.017982)
 50:   1467.77   0.001961    9.91  0.000417  ( 0.006791 -0.004460 -0.018734)
 51:   1476.17   0.000357    1.80  0.000075  ( 0.004516 -0.007394 -0.000546)
 52:   1501.98   0.000109    0.55  0.000023  (-0.001936 -0.004231 -0.001039)
 53:   1509.38   0.001231    6.22  0.000254  (-0.010908 -0.009576  0.006617)
 54:   1513.78   0.002223   11.24  0.000458  ( 0.014464  0.013609 -0.007997)
 55:   1517.25   0.000852    4.30  0.000175  ( 0.008722 -0.008751 -0.004744)
 56:   1522.80   0.003144   15.89  0.000644  ( 0.013589 -0.019757 -0.008327)
 57:   1526.78   0.002202   11.13  0.000450  (-0.008864  0.002628 -0.019094)
 58:   1537.75   0.001349    6.82  0.000274  (-0.001311  0.016326 -0.002344)
 59:   1733.06   0.005651   28.56  0.001018  (-0.021824  0.020132  0.011661)
 60:   1786.84   0.002957   14.95  0.000517  ( 0.019543 -0.011355  0.002374)
 61:   1806.16   0.000689    3.48  0.000119  ( 0.008207 -0.002939  0.006559)
 62:   3093.53   0.005214   26.35  0.000526  ( 0.017633  0.012453 -0.007741)
 63:   3097.26   0.009797   49.51  0.000987  ( 0.022955  0.000247  0.021449)
 64:   3107.71   0.006082   30.74  0.000611  ( 0.004241 -0.016986 -0.017442)
 65:   3108.74   0.002708   13.68  0.000272  ( 0.000950  0.014929 -0.006930)
 66:   3165.44   0.001626    8.22  0.000160  (-0.006757  0.009408  0.005114)
 67:   3169.95   0.002804   14.17  0.000276  ( 0.008914 -0.012289 -0.006750)
 68:   3183.20   0.001658    8.38  0.000163  (-0.006983 -0.009678  0.004489)
 69:   3185.52   0.000142    0.72  0.000014  (-0.002487  0.000260 -0.002770)
 70:   3203.60   0.000962    4.86  0.000094  ( 0.009177  0.002113 -0.002248)
 71:   3209.07   0.003457   17.47  0.000336  (-0.003543 -0.008338  0.015942)
 72:   3212.71   0.001126    5.69  0.000109  (-0.004677  0.003183 -0.008796)
 73:   3216.64   0.004670   23.60  0.000453  ( 0.005512  0.002889  0.020355)
 74:   3226.08   0.003679   18.59  0.000356  (-0.015472 -0.009931  0.004230)
 75:   3228.59   0.001880    9.50  0.000182  (-0.008031  0.004099 -0.010019)
 76:   3234.50   0.001668    8.43  0.000161  ( 0.008421 -0.007713  0.005522)
 77:   3315.21   0.000723    3.66  0.000068  ( 0.004337 -0.001343  0.006891)

--------------------------
THERMOCHEMISTRY AT 298.15K
--------------------------

Temperature         ...   298.15 K
Pressure            ...     1.00 atm
Total Mass          ...   136.24 AMU
Quasi RRHO          ...     True
Cut-Off Frequency   ...     1.00 cm^-1

Throughout the following assumptions are being made:
  (1) The electronic state is orbitally nondegenerate
  (2) There are no thermally accessible electronically excited states
  (3) Hindered rotations indicated by low frequency modes are not
      treated as such but are treated as vibrations and this may
      cause some error
  (4) All equations used are the standard statistical mechanics
      equations for an ideal gas
  (5) All vibrations are strictly harmonic

freq.      32.90  E(vib)   ...       0.55
freq.      42.44  E(vib)   ...       0.53
freq.      66.13  E(vib)   ...       0.50
freq.     128.77  E(vib)   ...       0.43
freq.     135.40  E(vib)   ...       0.42
freq.     174.86  E(vib)   ...       0.38
freq.     183.36  E(vib)   ...       0.37
freq.     218.02  E(vib)   ...       0.33
freq.     258.45  E(vib)   ...       0.30
freq.     290.96  E(vib)   ...       0.27
freq.     329.96  E(vib)   ...       0.24
freq.     349.77  E(vib)   ...       0.23
freq.     410.35  E(vib)   ...       0.19
freq.     444.99  E(vib)   ...       0.17
freq.     462.89  E(vib)   ...       0.16
freq.     534.28  E(vib)   ...       0.13
freq.     547.96  E(vib)   ...       0.12
freq.     580.03  E(vib)   ...       0.11
freq.     701.80  E(vib)   ...       0.07
freq.     782.88  E(vib)   ...       0.05
freq.     823.90  E(vib)   ...       0.05
freq.     871.26  E(vib)   ...       0.04
freq.     920.14  E(vib)   ...       0.03
freq.     949.67  E(vib)   ...       0.03
freq.     974.22  E(vib)   ...       0.03
freq.     986.29  E(vib)   ...       0.02
freq.    1004.27  E(vib)   ...       0.02
freq.    1033.55  E(vib)   ...       0.02
freq.    1045.83  E(vib)   ...       0.02
freq.    1067.20  E(vib)   ...       0.02
freq.    1081.90  E(vib)   ...       0.02
freq.    1085.47  E(vib)   ...       0.02
freq.    1125.46  E(vib)   ...       0.01
freq.    1128.29  E(vib)   ...       0.01
freq.    1157.59  E(vib)   ...       0.01
freq.    1212.37  E(vib)   ...       0.01
freq.    1275.46  E(vib)   ...       0.01
freq.    1301.17  E(vib)   ...       0.01
freq.    1347.33  E(vib)   ...       0.01
freq.    1359.28  E(vib)   ...       0.01
freq.    1409.53  E(vib)   ...       0.00
freq.    1416.88  E(vib)   ...       0.00
freq.    1450.80  E(vib)   ...       0.00
freq.    1458.75  E(vib)   ...       0.00
freq.    1467.77  E(vib)   ...       0.00
freq.    1476.17  E(vib)   ...       0.00
freq.    1501.98  E(vib)   ...       0.00
freq.    1509.38  E(vib)   ...       0.00
freq.    1513.78  E(vib)   ...       0.00
freq.    1517.25  E(vib)   ...       0.00
freq.    1522.80  E(vib)   ...       0.00
freq.    1526.78  E(vib)   ...       0.00
freq.    1537.75  E(vib)   ...       0.00
freq.    1733.06  E(vib)   ...       0.00
freq.    1786.84  E(vib)   ...       0.00
freq.    1806.16  E(vib)   ...       0.00
freq.    3093.53  E(vib)   ...       0.00
freq.    3097.26  E(vib)   ...       0.00
freq.    3107.71  E(vib)   ...       0.00
freq.    3108.74  E(vib)   ...       0.00
freq.    3165.44  E(vib)   ...       0.00
freq.    3169.95  E(vib)   ...       0.00
freq.    3183.20  E(vib)   ...       0.00
freq.    3185.52  E(vib)   ...       0.00
freq.    3203.60  E(vib)   ...       0.00
freq.    3209.07  E(vib)   ...       0.00
freq.    3212.71  E(vib)   ...       0.00
freq.    3216.64  E(vib)   ...       0.00
freq.    3226.08  E(vib)   ...       0.00
freq.    3228.59  E(vib)   ...       0.00
freq.    3234.50  E(vib)   ...       0.00
freq.    3315.21  E(vib)   ...       0.00

------------
INNER ENERGY
------------

The inner energy is: U= E(el) + E(ZPE) + E(vib) + E(rot) + E(trans)
    E(el)   - is the total energy from the electronic structure calculation
              = E(kin-el) + E(nuc-el) + E(el-el) + E(nuc-nuc)
    E(ZPE)  - the the zero temperature vibrational energy from the frequency calculation
    E(vib)  - the the finite temperature correction to E(ZPE) due to population
              of excited vibrational states
    E(rot)  - is the rotational thermal energy
    E(trans)- is the translational thermal energy

Summary of contributions to the inner energy U:
Electronic energy                ...    -66.57167203 Eh
Zero point energy                ...      0.23697561 Eh     148.70 kcal/mol
Thermal vibrational correction   ...      0.00950856 Eh       5.97 kcal/mol
Thermal rotational correction    ...      0.00141627 Eh       0.89 kcal/mol
Thermal translational correction ...      0.00141627 Eh       0.89 kcal/mol
-----------------------------------------------------------------------
Total thermal energy                    -66.32235532 Eh

Summary of corrections to the electronic energy:
(perhaps to be used in another calculation)
Total thermal correction                  0.01234110 Eh       7.74 kcal/mol
Non-thermal (ZPE) correction              0.23697561 Eh     148.70 kcal/mol
-----------------------------------------------------------------------
Total correction                          0.24931671 Eh     156.45 kcal/mol

--------
ENTHALPY
--------

The enthalpy is H = U + kB*T
                kB is Boltzmann's constant
Total thermal energy              ...    -66.32235532 Eh
Thermal Enthalpy correction       ...      0.00094421 Eh       0.59 kcal/mol
-----------------------------------------------------------------------
Total Enthalpy                    ...    -66.32141111 Eh

Note: Only C1 symmetry has been detected, increase convergence thresholds
      if your molecule has a higher symmetry. Symmetry factor of 1.0 is
      used for the rotational entropy correction.

Note: Rotational entropy computed according to Herzberg
Infrared and Raman Spectra, Chapter V,1, Van Nostrand Reinhold, 1945
Point Group:  C1, Symmetry Number:   1
Rotational constants in cm-1:     0.088235     0.018901     0.018200

Vibrational entropy computed according to the QRRHO of S. Grimme
Chem.Eur.J. 2012 18 9955 using a reference frequency of 100.0 cm-1

-------
ENTROPY
-------

The entropy contributions are T*S = T*(S(el)+S(vib)+S(rot)+S(trans))
     S(el)   - electronic entropy
     S(vib)  - vibrational entropy
     S(rot)  - rotational entropy
     S(trans)- translational entropy
The entropies will be listed as multiplied by the temperature to get
units of energy

                             ****ORCA TERMINATED NORMALLY****
TOTAL RUN TIME: 0 days 0 hours 29 minutes 6 seconds 798 msec
