                         Program Version 6.0.1  -  RELEASE   -
|  1> ! wB97X-3c OPT FREQ TightSCF
|  2> %pal
|  3>   nprocs 40
|  4> end
|  5> * xyz 0 1
|  6> C      1.832507     2.596983    -0.551190
|  7> C      1.312597     1.381946    -1.279728
|  8> C      0.002321     1.044970    -1.274685
|  9> C     -1.026831     1.621037    -0.337510
| 10> C     -1.443960     0.543586     0.652126
| 11> C     -2.589642    -0.177799     0.497285
| 12> C     -3.472741    -0.003917    -0.715178
| 13> C     -3.041323    -1.185609     1.527037
| 14> C     -0.501812     0.286867     1.775740
| 15> O     -0.254497     1.221804     2.583505
| 16> C      0.242638    -1.022222     1.924058
| 17> C      1.129764    -1.279169     0.725188
| 18> C      2.236241    -0.521254     0.561985
| 19> C      3.029989    -0.425970    -0.725618
| 20> C      2.316026     0.388021    -1.837294
| 21> C      0.748677    -2.351038    -0.267727
| 22> H      1.650770     2.500966     0.539628
| 23> H      2.926219     2.710127    -0.705914
| 24> H      1.332399     3.510337    -0.936391
| 25> H     -0.319202     0.179386    -1.846452
| 26> H     -0.650301     2.502552     0.219051
| 27> H     -1.875622     2.004192    -0.936998
| 28> H     -2.878364    -0.130747    -1.644414
| 29> H     -3.945087     1.000590    -0.701516
| 30> H     -4.285393    -0.760309    -0.738678
| 31> H     -2.593903    -2.175617     1.303865
| 32> H     -2.772072    -0.864464     2.555313
| 33> H     -4.145833    -1.298343     1.508552
| 34> H      0.869049    -0.998285     2.842910
| 35> H     -0.470300    -1.854379     2.071175
| 36> H      2.503137     0.185398     1.344152
| 37> H      3.290511    -1.439950    -1.097294
| 38> H      3.989639     0.082362    -0.488619
| 39> H      1.823885    -0.313784    -2.545158
| 40> H      3.076226     0.935261    -2.435566
| 41> H     -0.197912    -2.852140     0.023017
| 42> H      1.548225    -3.119820    -0.311424
| 43> H      0.603975    -1.921570    -1.277232
| 44> *
| 45>
| 46>                          ****END OF INPUT****
 Total Charge           Charge          ....    0
 Multiplicity           Mult            ....    1
 Number of Electrons    NEL             ....   88
Dispersion correction           -0.053013991
FINAL SINGLE POINT ENERGY      -114.711204979159
Dispersion correction             ... done (  0.1 sec)
Dispersion correction           -0.054156182
FINAL SINGLE POINT ENERGY      -114.726286438963
Dispersion correction             ... done (  0.1 sec)
Dispersion correction           -0.054416172
FINAL SINGLE POINT ENERGY      -114.728732641948
Dispersion correction             ... done (  0.1 sec)
FINAL SINGLE POINT ENERGY      -114.729561547583
FINAL SINGLE POINT ENERGY      -114.730010218759
FINAL SINGLE POINT ENERGY      -114.730264547249
FINAL SINGLE POINT ENERGY      -114.730458188994
FINAL SINGLE POINT ENERGY      -114.730679157155
FINAL SINGLE POINT ENERGY      -114.730984025257
FINAL SINGLE POINT ENERGY      -114.731708342846
FINAL SINGLE POINT ENERGY      -114.734606231910
FINAL SINGLE POINT ENERGY      -114.734690072050
FINAL SINGLE POINT ENERGY      -114.734756034475
FINAL SINGLE POINT ENERGY      -114.734805671225
FINAL SINGLE POINT ENERGY      -114.734862711796
FINAL SINGLE POINT ENERGY      -114.734883698980
FINAL SINGLE POINT ENERGY      -114.734893873859
Dispersion correction             ... done (  0.1 sec)
Dispersion correction           -0.053984010
FINAL SINGLE POINT ENERGY      -114.734898803732
Dispersion correction             ... done (  0.0 sec)
Dispersion correction           -0.053994954
FINAL SINGLE POINT ENERGY      -114.734901308647
Dispersion correction             ... done (  0.1 sec)
                    ***********************HURRAY********************

CARTESIAN COORDINATES (ANGSTROEM)
---------------------------------
  C      1.890300    2.577832   -0.518698
  C      1.382216    1.367365   -1.233316
  C      0.107487    0.996344   -1.293473
  C     -1.049877    1.521670   -0.503388
  C     -1.464466    0.476905    0.509915
  C     -2.618333   -0.191849    0.500806
  C     -3.648019   -0.057567   -0.580681
  C     -3.054496   -1.103369    1.610707
  C     -0.452891    0.294793    1.608932
  O     -0.076281    1.253095    2.241578
  C      0.198606   -1.061786    1.819863
  C      1.166792   -1.293862    0.677218
  C      2.237809   -0.516866    0.578380
  C      3.128921   -0.348804   -0.616219
  C      2.430495    0.431953   -1.764950
  C      0.756698   -2.311007   -0.336143
  H      2.542072    2.301048    0.310554
  H      2.485866    3.186281   -1.201212
  H      1.096158    3.199483   -0.117863
  H     -0.116286    0.092341   -1.851939
  H     -0.782391    2.420389    0.047991
  H     -1.885689    1.781211   -1.147794
  H     -3.257187    0.360622   -1.502273
  H     -4.477047    0.568258   -0.245204
  H     -4.068135   -1.037357   -0.811287
  H     -3.051960   -2.146458    1.288180
  H     -2.453149   -1.013133    2.509774
  H     -4.082614   -0.864881    1.886730
  H      0.712912   -1.028249    2.778065
  H     -0.541887   -1.856899    1.843500
  H      2.393751    0.193089    1.383918
  H      3.468500   -1.309604   -1.003740
  H      4.027079    0.185489   -0.308384
  H      1.956359   -0.278064   -2.441517
  H      3.189343    0.964477   -2.341624
  H     -0.223144   -2.068113   -0.750538
  H      0.667719   -3.293684    0.131110
  H      1.464768   -2.391095   -1.156976

 Multiplicity           Mult            ....    1
 Number of Electrons    NEL             ....   88
 Basis Dimension        Dim             ....  318

ORBITAL ENERGIES
----------------

  NO   OCC          E(Eh)            E(eV)
   0   2.0000      -1.167830       -31.7783
   1   2.0000      -0.988016       -26.8853
   2   2.0000      -0.970214       -26.4009
   3   2.0000      -0.953170       -25.9371
   4   2.0000      -0.910962       -24.7885
   5   2.0000      -0.874945       -23.8085
   6   2.0000      -0.858209       -23.3531
   7   2.0000      -0.836680       -22.7672
   8   2.0000      -0.823293       -22.4029
   9   2.0000      -0.822054       -22.3692
  10   2.0000      -0.771262       -20.9871
  11   2.0000      -0.737090       -20.0572
  12   2.0000      -0.703438       -19.1415
  13   2.0000      -0.647128       -17.6092
  14   2.0000      -0.638236       -17.3673
  15   2.0000      -0.616672       -16.7805
  16   2.0000      -0.607703       -16.5364
  17   2.0000      -0.591601       -16.0983
  18   2.0000      -0.578965       -15.7544
  19   2.0000      -0.577130       -15.7045
  20   2.0000      -0.568219       -15.4620
  21   2.0000      -0.561394       -15.2763
  22   2.0000      -0.551486       -15.0067
  23   2.0000      -0.538556       -14.6549
  24   2.0000      -0.527959       -14.3665
  25   2.0000      -0.521713       -14.1965
  26   2.0000      -0.513006       -13.9596
  27   2.0000      -0.509240       -13.8571
  28   2.0000      -0.507460       -13.8087
  29   2.0000      -0.502280       -13.6677
  30   2.0000      -0.497442       -13.5361
  31   2.0000      -0.487880       -13.2759
  32   2.0000      -0.481286       -13.0965
  33   2.0000      -0.476327       -12.9615
  34   2.0000      -0.466792       -12.7020
  35   2.0000      -0.455582       -12.3970
  36   2.0000      -0.451895       -12.2967
  37   2.0000      -0.441466       -12.0129
  38   2.0000      -0.432771       -11.7763
  39   2.0000      -0.423139       -11.5142
  40   2.0000      -0.363907        -9.9024
  41   2.0000      -0.347245        -9.4490
  42   2.0000      -0.332810        -9.0562
  43   2.0000      -0.321000        -8.7349
  44   0.0000       0.045661         1.2425
  45   0.0000       0.076394         2.0788
  46   0.0000       0.084303         2.2940
  47   0.0000       0.092283         2.5111
  48   0.0000       0.096290         2.6202

MULLIKEN ATOMIC CHARGES
-----------------------
   0 C :   -0.025635
   1 C :   -0.061787
   2 C :   -0.016225
   3 C :   -0.036031
   4 C :   -0.066688
   5 C :   -0.061927
   6 C :   -0.051794
   7 C :   -0.060138
   8 C :    0.125861
   9 O :   -0.294242
  10 C :   -0.007913
  11 C :   -0.096675
  12 C :    0.001457
  13 C :   -0.072828
  14 C :   -0.028146
  15 C :   -0.036738
  16 H :    0.030947
  17 H :    0.037997
  18 H :    0.032867
  19 H :   -0.004263
  20 H :    0.052825
  21 H :    0.037721
  22 H :    0.030178
  23 H :    0.051309
  24 H :    0.034687
  25 H :    0.042796
  26 H :    0.049088
  27 H :    0.041602
  28 H :    0.059638
  29 H :    0.024290
  30 H :    0.025899
  31 H :    0.042543
  32 H :    0.038745
  33 H :    0.024674
  34 H :    0.033797
  35 H :    0.033930
  36 H :    0.045557
  37 H :    0.022623
Sum of atomic charges:   -0.0000000

LOEWDIN ATOMIC CHARGES
----------------------
   0 C :   -0.099844
   1 C :   -0.043484
   2 C :   -0.049164
   3 C :   -0.075516
   4 C :   -0.035629
   5 C :   -0.036610
   6 C :   -0.102895
   7 C :   -0.104852
   8 C :    0.012344
   9 O :   -0.121843
  10 C :   -0.067398
  11 C :   -0.043338
  12 C :   -0.038340
  13 C :   -0.082470
  14 C :   -0.070066
  15 C :   -0.106543
  16 H :    0.048248
  17 H :    0.050906
  18 H :    0.047843
  19 H :    0.033804
  20 H :    0.054010
  21 H :    0.046470
  22 H :    0.045372
  23 H :    0.053560
  24 H :    0.052144
  25 H :    0.047968
  26 H :    0.049683
  27 H :    0.055803
  28 H :    0.061143
  29 H :    0.048639
  30 H :    0.042118
  31 H :    0.046163
  32 H :    0.046536
  33 H :    0.045568
  34 H :    0.045355
  35 H :    0.045134
  36 H :    0.051806
  37 H :    0.047373

  Mayer bond orders larger than 0.100000
B(  0-C ,  1-C ) :   1.0323 B(  0-C , 16-H ) :   0.9732 B(  0-C , 17-H ) :   0.9774
B(  0-C , 18-H ) :   0.9868 B(  1-C ,  2-C ) :   1.8882 B(  1-C , 14-C ) :   1.0295
B(  2-C ,  3-C ) :   1.0063 B(  2-C , 19-H ) :   0.9928 B(  3-C ,  4-C ) :   1.0085
B(  3-C , 20-H ) :   0.9742 B(  3-C , 21-H ) :   0.9876 B(  4-C ,  5-C ) :   1.8570
B(  4-C ,  8-C ) :   1.0406 B(  5-C ,  6-C ) :   1.0337 B(  5-C ,  7-C ) :   1.0247
B(  6-C , 22-H ) :   0.9895 B(  6-C , 23-H ) :   0.9732 B(  6-C , 24-H ) :   0.9787
B(  7-C , 25-H ) :   0.9744 B(  7-C , 26-H ) :   0.9853 B(  7-C , 27-H ) :   0.9800
B(  8-C ,  9-O ) :   1.9111 B(  8-C , 10-C ) :   1.0034 B( 10-C , 11-C ) :   1.0035
B( 10-C , 28-H ) :   0.9768 B( 10-C , 29-H ) :   0.9814 B( 11-C , 12-C ) :   1.8975
B( 11-C , 15-C ) :   1.0321 B( 12-C , 13-C ) :   1.0234 B( 12-C , 30-H ) :   0.9835
B( 13-C , 14-C ) :   0.9478 B( 13-C , 31-H ) :   0.9938 B( 13-C , 32-H ) :   0.9969
B( 14-C , 33-H ) :   0.9981 B( 14-C , 34-H ) :   0.9917 B( 15-C , 35-H ) :   0.9738
B( 15-C , 36-H ) :   0.9769 B( 15-C , 37-H ) :   0.9912

Dispersion correction           -0.054004307
FINAL SINGLE POINT ENERGY      -114.734902567134

DIPOLE MOMENT
-------------

Method             : SCF
Type of density    : Electron Density
Multiplicity       :   1
Irrep              :   0
Energy             :  -114.6808982600524303 Eh
Relativity type    :
Basis              : AO
                                X                 Y                 Z
Electronic contribution:      2.147787676       3.720359329       4.987504327
Nuclear contribution   :     -2.591399371      -4.586861566      -5.658107381
                        -----------------------------------------
Total Dipole Moment    :     -0.443611694      -0.866502236      -0.670603053
                        -----------------------------------------
Magnitude (a.u.)       :      1.182085410
Magnitude (Debye)      :      3.004622330

VIBRATIONAL FREQUENCIES
-----------------------

Scaling factor for frequencies =  1.000000000  (already applied!)

     0:       0.00 cm**-1
     1:       0.00 cm**-1
     2:       0.00 cm**-1
     3:       0.00 cm**-1
     4:       0.00 cm**-1
     5:       0.00 cm**-1
     6:      38.46 cm**-1
     7:      55.97 cm**-1
     8:      87.46 cm**-1
     9:      93.57 cm**-1
    10:     109.99 cm**-1
    11:     118.86 cm**-1
    12:     131.05 cm**-1
    13:     138.86 cm**-1
    14:     170.97 cm**-1
    15:     203.11 cm**-1
    16:     215.43 cm**-1
    17:     222.72 cm**-1
    18:     243.41 cm**-1
    19:     262.06 cm**-1
    20:     275.99 cm**-1
    21:     333.01 cm**-1
    22:     355.03 cm**-1
    23:     371.91 cm**-1
    24:     389.57 cm**-1
    25:     405.41 cm**-1
    26:     425.49 cm**-1
    27:     434.66 cm**-1
    28:     474.95 cm**-1
    29:     514.98 cm**-1
    30:     521.64 cm**-1
    31:     540.73 cm**-1
    32:     558.37 cm**-1
    33:     631.52 cm**-1
    34:     652.14 cm**-1
    35:     702.64 cm**-1
    36:     761.76 cm**-1
    37:     805.61 cm**-1
    38:     814.04 cm**-1
    39:     865.25 cm**-1
    40:     897.08 cm**-1
    41:     915.02 cm**-1
    42:     935.21 cm**-1
    43:     957.37 cm**-1
    44:     963.44 cm**-1
    45:     994.65 cm**-1
    46:     999.67 cm**-1
    47:    1002.41 cm**-1
    48:    1005.85 cm**-1
    49:    1040.83 cm**-1
    50:    1055.11 cm**-1
    51:    1071.73 cm**-1
    52:    1081.98 cm**-1
    53:    1088.57 cm**-1
    54:    1122.56 cm**-1
    55:    1128.72 cm**-1
    56:    1139.69 cm**-1
    57:    1164.76 cm**-1
    58:    1195.44 cm**-1
    59:    1207.73 cm**-1
    60:    1229.36 cm**-1
    61:    1252.33 cm**-1
    62:    1266.65 cm**-1
    63:    1275.90 cm**-1
    64:    1288.47 cm**-1
    65:    1330.02 cm**-1
    66:    1342.50 cm**-1
    67:    1357.95 cm**-1
    68:    1363.92 cm**-1
    69:    1391.57 cm**-1
    70:    1421.10 cm**-1
    71:    1423.84 cm**-1
    72:    1447.81 cm**-1
    73:    1451.29 cm**-1
    74:    1463.20 cm**-1
    75:    1470.11 cm**-1
    76:    1500.53 cm**-1
    77:    1504.04 cm**-1
    78:    1506.87 cm**-1
    79:    1507.01 cm**-1
    80:    1510.08 cm**-1
    81:    1514.29 cm**-1
    82:    1517.87 cm**-1
    83:    1519.73 cm**-1
    84:    1526.32 cm**-1
    85:    1535.34 cm**-1
    86:    1539.62 cm**-1
    87:    1541.32 cm**-1
    88:    1785.41 cm**-1
    89:    1802.65 cm**-1
    90:    1803.93 cm**-1
    91:    1831.61 cm**-1
    92:    3093.41 cm**-1
    93:    3095.33 cm**-1
    94:    3101.35 cm**-1
    95:    3103.35 cm**-1
    96:    3105.64 cm**-1
    97:    3121.79 cm**-1
    98:    3143.76 cm**-1
    99:    3150.62 cm**-1
   100:    3160.80 cm**-1
   101:    3165.71 cm**-1
   102:    3168.09 cm**-1
   103:    3173.09 cm**-1
   104:    3175.64 cm**-1
   105:    3177.30 cm**-1
   106:    3194.28 cm**-1
   107:    3208.21 cm**-1
   108:    3212.29 cm**-1
   109:    3214.18 cm**-1
   110:    3215.48 cm**-1
   111:    3227.19 cm**-1
   112:    3231.69 cm**-1
   113:    3233.08 cm**-1

IR SPECTRUM
-----------

 Mode   freq       eps      Int      T**2         TX        TY        TZ
       cm**-1   L/(mol*cm) km/mol    a.u.
----------------------------------------------------------------------------
  6:     38.46   0.000139    0.70  0.001128  (-0.017959  0.019168  0.020936)
  7:     55.97   0.000151    0.76  0.000840  (-0.014854 -0.008447  0.023407)
  8:     87.46   0.000034    0.17  0.000122  ( 0.001123  0.007441 -0.008079)
  9:     93.57   0.000835    4.22  0.002785  (-0.044525 -0.008711  0.026953)
 10:    109.99   0.000063    0.32  0.000179  ( 0.013104 -0.002599 -0.000251)
 11:    118.86   0.000027    0.14  0.000072  (-0.005033  0.004706  0.004951)
 12:    131.05   0.000111    0.56  0.000263  (-0.014450  0.005944 -0.004367)
 13:    138.86   0.000090    0.45  0.000202  (-0.012313  0.001724  0.006887)
 14:    170.97   0.000121    0.61  0.000220  (-0.006544  0.001634  0.013220)
 15:    203.11   0.000117    0.59  0.000180  (-0.003580  0.011733 -0.005437)
 16:    215.43   0.000102    0.52  0.000148  ( 0.001364  0.004481 -0.011229)
 17:    222.72   0.000208    1.05  0.000291  (-0.005432 -0.003964  0.015684)
 18:    243.41   0.000200    1.01  0.000256  ( 0.002351  0.008993 -0.013037)
 19:    262.06   0.000290    1.46  0.000345  ( 0.000936  0.012185  0.013990)
 20:    275.99   0.000215    1.09  0.000243  ( 0.013115 -0.007969 -0.002771)
 21:    333.01   0.000778    3.93  0.000729  (-0.018641  0.007823 -0.017904)
 22:    355.03   0.000109    0.55  0.000096  ( 0.006173  0.007001  0.002987)
 23:    371.91   0.000238    1.20  0.000200  (-0.010384  0.007272 -0.006265)
 24:    389.57   0.000113    0.57  0.000090  ( 0.008321  0.002889 -0.003586)
 25:    405.41   0.000218    1.10  0.000168  ( 0.008194  0.007585 -0.006565)
 26:    425.49   0.000214    1.08  0.000157  (-0.006072  0.008844 -0.006495)
 27:    434.66   0.000709    3.58  0.000509  ( 0.017704 -0.013981 -0.000453)
 28:    474.95   0.000949    4.79  0.000623  (-0.012276 -0.011583  0.018395)
 29:    514.98   0.001540    7.78  0.000933  (-0.024093  0.016856 -0.008285)
 30:    521.64   0.000579    2.93  0.000346  ( 0.004893  0.012922 -0.012465)
 31:    540.73   0.000244    1.23  0.000141  ( 0.002643 -0.011203  0.002905)
 32:    558.37   0.002939   14.85  0.001643  ( 0.002326 -0.033861  0.022150)
 33:    631.52   0.000210    1.06  0.000104  (-0.001945  0.000540 -0.009987)
 34:    652.14   0.000179    0.91  0.000086  ( 0.005322 -0.003428 -0.006760)
 35:    702.64   0.002611   13.20  0.001160  (-0.029379  0.011788 -0.012554)
 36:    761.76   0.002361   11.93  0.000967  ( 0.029291 -0.003950  0.009684)
 37:    805.61   0.000340    1.72  0.000132  (-0.000914  0.007734  0.008428)
 38:    814.04   0.002688   13.58  0.001030  (-0.030174  0.010146  0.004127)
 39:    865.25   0.000420    2.12  0.000151  ( 0.007919  0.000793  0.009387)
 40:    897.08   0.003431   17.34  0.001194  (-0.028522  0.011634 -0.015646)
 41:    915.02   0.001928    9.74  0.000658  ( 0.006877 -0.010517  0.022352)
 42:    935.21   0.000422    2.13  0.000141  (-0.003970  0.005647 -0.009645)
 43:    957.37   0.000189    0.96  0.000062  ( 0.005081 -0.001749  0.005724)
 44:    963.44   0.001141    5.77  0.000370  (-0.013365  0.008064 -0.011219)
 45:    994.65   0.000260    1.31  0.000082  (-0.008810 -0.001760  0.000941)
 46:    999.67   0.000445    2.25  0.000139  (-0.010513 -0.002208 -0.004863)
 47:   1002.41   0.000243    1.23  0.000076  ( 0.004171  0.007301 -0.002234)
 48:   1005.85   0.000391    1.98  0.000121  ( 0.010279  0.003930  0.000413)
 49:   1040.83   0.000628    3.17  0.000188  (-0.007821 -0.007956  0.007988)
 50:   1055.11   0.000586    2.96  0.000173  (-0.012079  0.002480 -0.004612)
 51:   1071.73   0.002421   12.24  0.000705  ( 0.025042 -0.008556  0.002164)
 52:   1081.98   0.000370    1.87  0.000107  ( 0.005385 -0.000666  0.008789)
 53:   1088.57   0.000387    1.96  0.000111  ( 0.009887  0.002529 -0.002624)
 54:   1122.56   0.001003    5.07  0.000279  ( 0.014190  0.003276 -0.008162)
 55:   1128.72   0.000926    4.68  0.000256  ( 0.014063  0.006082 -0.004602)
 56:   1139.69   0.001052    5.32  0.000288  ( 0.004898  0.011571 -0.011414)
 57:   1164.76   0.000904    4.57  0.000242  ( 0.010846  0.010862 -0.002545)
 58:   1195.44   0.001807    9.13  0.000472  ( 0.021241 -0.001142  0.004393)
 59:   1207.73   0.004358   22.03  0.001126  (-0.032264 -0.001566 -0.009096)
 60:   1229.36   0.002307   11.66  0.000586  ( 0.022774 -0.007046  0.004149)
 61:   1252.33   0.001550    7.83  0.000386  ( 0.019614 -0.000799 -0.000942)
 62:   1266.65   0.001083    5.47  0.000267  (-0.012040  0.009792  0.005095)
 63:   1275.90   0.000774    3.91  0.000189  (-0.011477  0.002619 -0.007126)
 64:   1288.47   0.000286    1.44  0.000069  (-0.006779 -0.003719 -0.003076)
 65:   1330.02   0.003542   17.90  0.000831  ( 0.020340 -0.019615 -0.005708)
 66:   1342.50   0.002236   11.30  0.000520  (-0.014084  0.016704  0.006506)
 67:   1357.95   0.010679   53.97  0.002454  ( 0.043205 -0.019778  0.014007)
 68:   1363.92   0.000154    0.78  0.000035  ( 0.004433 -0.003387  0.002046)
 69:   1391.57   0.000013    0.06  0.000003  ( 0.001483 -0.000814 -0.000112)
 70:   1421.10   0.000829    4.19  0.000182  ( 0.009823  0.001828  0.009064)
 71:   1423.84   0.000303    1.53  0.000066  ( 0.002643 -0.002600 -0.007262)
 72:   1447.81   0.003809   19.25  0.000821  (-0.017762  0.008411 -0.020853)
 73:   1451.29   0.000947    4.79  0.000204  ( 0.004012  0.011478 -0.007475)
 74:   1463.20   0.000909    4.59  0.000194  ( 0.012929  0.001686 -0.004877)
 75:   1470.11   0.005801   29.31  0.001231  ( 0.007344  0.030980  0.014754)
 76:   1500.53   0.001058    5.34  0.000220  ( 0.005025 -0.009507 -0.010213)
 77:   1504.04   0.002332   11.78  0.000484  ( 0.004328 -0.006086  0.020689)
 78:   1506.87   0.002006   10.14  0.000415  ( 0.019097  0.006212 -0.003474)
 79:   1507.01   0.001894    9.57  0.000392  (-0.013635 -0.012342  0.007346)
 80:   1510.08   0.001296    6.55  0.000268  ( 0.004472  0.006898 -0.014151)
 81:   1514.29   0.000674    3.40  0.000139  ( 0.007039 -0.008937 -0.003067)
 82:   1517.87   0.002951   14.91  0.000607  ( 0.018246 -0.016527 -0.000757)
 83:   1519.73   0.001724    8.71  0.000354  ( 0.008841 -0.016447  0.002293)
 84:   1526.32   0.002178   11.00  0.000445  ( 0.016334 -0.001948  0.013215)
 85:   1535.34   0.001665    8.41  0.000338  (-0.000807 -0.011107 -0.014642)
 86:   1539.62   0.001299    6.56  0.000263  (-0.001239 -0.014222  0.007711)
 87:   1541.32   0.001804    9.12  0.000365  (-0.010482  0.006375  0.014652)
 88:   1785.41   0.003289   16.62  0.000575  (-0.023585  0.003852 -0.001949)
 89:   1802.65   0.000339    1.71  0.000059  ( 0.006748  0.000755  0.003537)
 90:   1803.93   0.000182    0.92  0.000031  ( 0.000332 -0.003023 -0.004712)
 91:   1831.61   0.038883  196.50  0.006625  ( 0.017111  0.060162  0.052081)
 92:   3093.41   0.004765   24.08  0.000481  ( 0.008723  0.018640  0.007559)
 93:   3095.33   0.004219   21.32  0.000425  ( 0.009982  0.013009 -0.012510)
 94:   3101.35   0.007951   40.18  0.000800  (-0.026480 -0.008338 -0.005420)
 95:   3103.35   0.004735   23.93  0.000476  (-0.009445 -0.012813 -0.014924)
 96:   3105.64   0.006500   32.85  0.000653  ( 0.013979  0.012746 -0.017184)
 97:   3121.79   0.012382   62.57  0.001238  (-0.032809  0.005202  0.011585)
 98:   3143.76   0.002664   13.47  0.000264  ( 0.005126  0.010310 -0.011485)
 99:   3150.62   0.004151   20.98  0.000411  (-0.014118  0.013605 -0.005169)
100:   3160.80   0.000365    1.85  0.000036  ( 0.005981 -0.000126 -0.000531)
101:   3165.71   0.001631    8.24  0.000161  (-0.004037  0.009902 -0.006815)
102:   3168.09   0.001845    9.33  0.000182  ( 0.009183 -0.009187 -0.003614)
103:   3173.09   0.001684    8.51  0.000166  ( 0.002171 -0.011985 -0.004159)
104:   3175.64   0.001878    9.49  0.000185  ( 0.000954  0.007899 -0.011012)
105:   3177.30   0.003919   19.81  0.000385  (-0.012418 -0.014580 -0.004259)
106:   3194.28   0.002391   12.08  0.000234  ( 0.003317 -0.010770 -0.010324)
107:   3208.21   0.001682    8.50  0.000164  ( 0.008398  0.005425  0.007978)
108:   3212.29   0.000332    1.68  0.000032  ( 0.003846  0.001952  0.003691)
109:   3214.18   0.003148   15.91  0.000306  (-0.000897  0.007421  0.015804)
110:   3215.48   0.002239   11.32  0.000217  ( 0.014194  0.003914 -0.000717)
111:   3227.19   0.001172    5.92  0.000113  ( 0.005108  0.000326  0.009334)
112:   3231.69   0.001547    7.82  0.000149  (-0.006961  0.009806 -0.002196)
113:   3233.08   0.002050   10.36  0.000198  (-0.006120 -0.001567  0.012568)

--------------------------
THERMOCHEMISTRY AT 298.15K
--------------------------

Temperature         ...   298.15 K
Pressure            ...     1.00 atm
Total Mass          ...   218.34 AMU
Quasi RRHO          ...     True
Cut-Off Frequency   ...     1.00 cm^-1

Throughout the following assumptions are being made:
  (1) The electronic state is orbitally nondegenerate
  (2) There are no thermally accessible electronically excited states
  (3) Hindered rotations indicated by low frequency modes are not
      treated as such but are treated as vibrations and this may
      cause some error
  (4) All equations used are the standard statistical mechanics
      equations for an ideal gas
  (5) All vibrations are strictly harmonic

freq.      38.46  E(vib)   ...       0.54
freq.      55.97  E(vib)   ...       0.52
freq.      87.46  E(vib)   ...       0.48
freq.      93.57  E(vib)   ...       0.47
freq.     109.99  E(vib)   ...       0.45
freq.     118.86  E(vib)   ...       0.44
freq.     131.05  E(vib)   ...       0.42
freq.     138.86  E(vib)   ...       0.42
freq.     170.97  E(vib)   ...       0.38
freq.     203.11  E(vib)   ...       0.35
freq.     215.43  E(vib)   ...       0.34
freq.     222.72  E(vib)   ...       0.33
freq.     243.41  E(vib)   ...       0.31
freq.     262.06  E(vib)   ...       0.29
freq.     275.99  E(vib)   ...       0.28
freq.     333.01  E(vib)   ...       0.24
freq.     355.03  E(vib)   ...       0.22
freq.     371.91  E(vib)   ...       0.21
freq.     389.57  E(vib)   ...       0.20
freq.     405.41  E(vib)   ...       0.19
freq.     425.49  E(vib)   ...       0.18
freq.     434.66  E(vib)   ...       0.17
freq.     474.95  E(vib)   ...       0.15
freq.     514.98  E(vib)   ...       0.13
freq.     521.64  E(vib)   ...       0.13
freq.     540.73  E(vib)   ...       0.12
freq.     558.37  E(vib)   ...       0.12
freq.     631.52  E(vib)   ...       0.09
freq.     652.14  E(vib)   ...       0.08
freq.     702.64  E(vib)   ...       0.07
freq.     761.76  E(vib)   ...       0.06
freq.     805.61  E(vib)   ...       0.05
freq.     814.04  E(vib)   ...       0.05
freq.     865.25  E(vib)   ...       0.04
freq.     897.08  E(vib)   ...       0.03
freq.     915.02  E(vib)   ...       0.03
freq.     935.21  E(vib)   ...       0.03
freq.     957.37  E(vib)   ...       0.03
freq.     963.44  E(vib)   ...       0.03
freq.     994.65  E(vib)   ...       0.02
freq.     999.67  E(vib)   ...       0.02
freq.    1002.41  E(vib)   ...       0.02
freq.    1005.85  E(vib)   ...       0.02
freq.    1040.83  E(vib)   ...       0.02
freq.    1055.11  E(vib)   ...       0.02
freq.    1071.73  E(vib)   ...       0.02
freq.    1081.98  E(vib)   ...       0.02
freq.    1088.57  E(vib)   ...       0.02
freq.    1122.56  E(vib)   ...       0.01
freq.    1128.72  E(vib)   ...       0.01
freq.    1139.69  E(vib)   ...       0.01
freq.    1164.76  E(vib)   ...       0.01
freq.    1195.44  E(vib)   ...       0.01
freq.    1207.73  E(vib)   ...       0.01
freq.    1229.36  E(vib)   ...       0.01
freq.    1252.33  E(vib)   ...       0.01
freq.    1266.65  E(vib)   ...       0.01
freq.    1275.90  E(vib)   ...       0.01
freq.    1288.47  E(vib)   ...       0.01
freq.    1330.02  E(vib)   ...       0.01
freq.    1342.50  E(vib)   ...       0.01
freq.    1357.95  E(vib)   ...       0.01
freq.    1363.92  E(vib)   ...       0.01
freq.    1391.57  E(vib)   ...       0.00
freq.    1421.10  E(vib)   ...       0.00
freq.    1423.84  E(vib)   ...       0.00
freq.    1447.81  E(vib)   ...       0.00
freq.    1451.29  E(vib)   ...       0.00
freq.    1463.20  E(vib)   ...       0.00
freq.    1470.11  E(vib)   ...       0.00
freq.    1500.53  E(vib)   ...       0.00
freq.    1504.04  E(vib)   ...       0.00
freq.    1506.87  E(vib)   ...       0.00
freq.    1507.01  E(vib)   ...       0.00
freq.    1510.08  E(vib)   ...       0.00
freq.    1514.29  E(vib)   ...       0.00
freq.    1517.87  E(vib)   ...       0.00
freq.    1519.73  E(vib)   ...       0.00
freq.    1526.32  E(vib)   ...       0.00
freq.    1535.34  E(vib)   ...       0.00
freq.    1539.62  E(vib)   ...       0.00
freq.    1541.32  E(vib)   ...       0.00
freq.    1785.41  E(vib)   ...       0.00
freq.    1802.65  E(vib)   ...       0.00
freq.    1803.93  E(vib)   ...       0.00
freq.    1831.61  E(vib)   ...       0.00
freq.    3093.41  E(vib)   ...       0.00
freq.    3095.33  E(vib)   ...       0.00
freq.    3101.35  E(vib)   ...       0.00
freq.    3103.35  E(vib)   ...       0.00
freq.    3105.64  E(vib)   ...       0.00
freq.    3121.79  E(vib)   ...       0.00
freq.    3143.76  E(vib)   ...       0.00
freq.    3150.62  E(vib)   ...       0.00
freq.    3160.80  E(vib)   ...       0.00
freq.    3165.71  E(vib)   ...       0.00
freq.    3168.09  E(vib)   ...       0.00
freq.    3173.09  E(vib)   ...       0.00
freq.    3175.64  E(vib)   ...       0.00
freq.    3177.30  E(vib)   ...       0.00
freq.    3194.28  E(vib)   ...       0.00
freq.    3208.21  E(vib)   ...       0.00
freq.    3212.29  E(vib)   ...       0.00
freq.    3214.18  E(vib)   ...       0.00
freq.    3215.48  E(vib)   ...       0.00
freq.    3227.19  E(vib)   ...       0.00
freq.    3231.69  E(vib)   ...       0.00
freq.    3233.08  E(vib)   ...       0.00

------------
INNER ENERGY
------------

The inner energy is: U= E(el) + E(ZPE) + E(vib) + E(rot) + E(trans)
    E(el)   - is the total energy from the electronic structure calculation
              = E(kin-el) + E(nuc-el) + E(el-el) + E(nuc-nuc)
    E(ZPE)  - the the zero temperature vibrational energy from the frequency calculation
    E(vib)  - the the finite temperature correction to E(ZPE) due to population
              of excited vibrational states
    E(rot)  - is the rotational thermal energy
    E(trans)- is the translational thermal energy

Summary of contributions to the inner energy U:
Electronic energy                ...   -114.73490257 Eh
Zero point energy                ...      0.34352337 Eh     215.56 kcal/mol
Thermal vibrational correction   ...      0.01443633 Eh       9.06 kcal/mol
Thermal rotational correction    ...      0.00141627 Eh       0.89 kcal/mol
Thermal translational correction ...      0.00141627 Eh       0.89 kcal/mol
-----------------------------------------------------------------------
Total thermal energy                   -114.37411032 Eh

Summary of corrections to the electronic energy:
(perhaps to be used in another calculation)
Total thermal correction                  0.01726888 Eh      10.84 kcal/mol
Non-thermal (ZPE) correction              0.34352337 Eh     215.56 kcal/mol
-----------------------------------------------------------------------
Total correction                          0.36079225 Eh     226.40 kcal/mol

--------
ENTHALPY

Rotational constants in cm-1:     0.026751     0.014181     0.012680

                             ****ORCA TERMINATED NORMALLY****
TOTAL RUN TIME: 0 days 0 hours 55 minutes 29 seconds 196 msec
