                         Program Version 6.0.1  -  RELEASE   -
|  1> ! wB97X-3c OPT FREQ TightSCF
|  2> %pal
|  3>   nprocs 40
|  4> end
|  5> * xyz 0 1
|  6> C     -2.768723    -2.621372    -1.122790
|  7> C     -2.591872    -1.258029    -0.525782
|  8> C     -3.003612    -0.978917     0.745101
|  9> C     -2.760437     0.434743     1.308393
| 10> C     -2.090135     1.341327     0.217765
| 11> C     -2.890479     1.099262    -1.076473
| 12> C     -1.956611    -0.104143    -1.314828
| 13> C     -0.885697     0.604098    -0.437134
| 14> C     -0.004402     1.562770    -1.285010
| 15> C      0.033969    -0.294688     0.462619
| 16> C      0.809632     0.502663     1.533941
| 17> C      2.188626     0.902449     1.065295
| 18> C      3.258293     0.075388     1.049142
| 19> C      3.179713    -1.342936     1.565072
| 20> C      4.576446     0.603128     0.530037
| 21> O      4.470430     0.922868    -0.830613
| 22> H     -2.217064    -3.369435    -0.515557
| 23> H     -3.846817    -2.885919    -1.140673
| 24> H     -2.377501    -2.647946    -2.161165
| 25> H     -3.468901    -1.740192     1.363663
| 26> H     -3.732753     0.877631     1.611537
| 27> H     -2.114434     0.375956     2.208914
| 28> H     -1.935709     2.405955     0.496707
| 29> H     -2.755641     1.911218    -1.823356
| 30> H     -3.972702     0.863671    -0.946105
| 31> H     -1.687834    -0.307701    -2.374090
| 32> H      0.840396     1.006800    -1.744482
| 33> H     -0.558886     2.047555    -2.113694
| 34> H      0.404261     2.371664    -0.645557
| 35> H     -0.515212    -1.093517     0.992245
| 36> H      0.736078    -0.843876    -0.200659
| 37> H      0.246341     1.419883     1.808279
| 38> H      0.890824    -0.093226     2.467966
| 39> H      2.319245     1.930668     0.738530
| 40> H      4.151962    -1.867228     1.458867
| 41> H      2.912316    -1.340050     2.642305
| 42> H      2.423770    -1.922692     0.998395
| 43> H      5.401143    -0.128373     0.682882
| 44> H      4.850576     1.520199     1.093796
| 45> H      4.441402     0.060348    -1.321851
| 46> *
| 47>
| 48>                          ****END OF INPUT****
 Total Charge           Charge          ....    0
 Multiplicity           Mult            ....    1
 Number of Electrons    NEL             ....   90
Dispersion correction           -0.052338198
FINAL SINGLE POINT ENERGY      -115.914542787162
Dispersion correction             ... done (  0.1 sec)
Dispersion correction           -0.052907389
FINAL SINGLE POINT ENERGY      -115.931409950913
Dispersion correction             ... done (  0.1 sec)
Dispersion correction           -0.052969083
FINAL SINGLE POINT ENERGY      -115.933684166183
Dispersion correction             ... done (  0.1 sec)
FINAL SINGLE POINT ENERGY      -115.934262561002
FINAL SINGLE POINT ENERGY      -115.934691556320
FINAL SINGLE POINT ENERGY      -115.935173567746
FINAL SINGLE POINT ENERGY      -115.936142053009
FINAL SINGLE POINT ENERGY      -115.937053532398
FINAL SINGLE POINT ENERGY      -115.938044650051
FINAL SINGLE POINT ENERGY      -115.938806987068
FINAL SINGLE POINT ENERGY      -115.943543156062
FINAL SINGLE POINT ENERGY      -115.943643642944
FINAL SINGLE POINT ENERGY      -115.943701029555
FINAL SINGLE POINT ENERGY      -115.943733664611
FINAL SINGLE POINT ENERGY      -115.943753412953
FINAL SINGLE POINT ENERGY      -115.943772533666
FINAL SINGLE POINT ENERGY      -115.943784152564
Dispersion correction             ... done (  0.1 sec)
Dispersion correction           -0.053094099
FINAL SINGLE POINT ENERGY      -115.943792559376
Dispersion correction             ... done (  0.1 sec)
Dispersion correction           -0.053087223
FINAL SINGLE POINT ENERGY      -115.943795708359
Dispersion correction             ... done (  0.1 sec)
                    ***********************HURRAY********************

CARTESIAN COORDINATES (ANGSTROEM)
---------------------------------
  C     -2.881548   -2.552685   -1.163606
  C     -2.686406   -1.221210   -0.524205
  C     -3.129263   -0.893157    0.683853
  C     -2.832694    0.471322    1.240089
  C     -2.085301    1.313719    0.211591
  C     -2.780509    1.142537   -1.149767
  C     -1.949268   -0.149193   -1.288637
  C     -0.876734    0.535363   -0.384064
  C      0.033608    1.441083   -1.201874
  C     -0.046770   -0.342863    0.539084
  C      0.755553    0.414585    1.605422
  C      2.099380    0.919416    1.165777
  C      3.195227    0.185192    1.006952
  C      3.260671   -1.292188    1.233262
  C      4.479910    0.829949    0.577512
  O      4.993354    0.301317   -0.632077
  H     -1.918692   -3.016424   -1.385754
  H     -3.447293   -3.226098   -0.522598
  H     -3.411304   -2.454101   -2.112594
  H     -3.683594   -1.599014    1.291655
  H     -3.762400    0.974879    1.519258
  H     -2.251968    0.380992    2.162789
  H     -1.902815    2.326877    0.573197
  H     -2.510093    1.914119   -1.863090
  H     -3.862208    1.019543   -1.142542
  H     -1.639633   -0.475735   -2.281676
  H      0.844072    0.864253   -1.647395
  H     -0.489753    1.951153   -2.006366
  H      0.485360    2.207987   -0.574452
  H     -0.698766   -1.052676    1.041565
  H      0.637658   -0.937156   -0.071521
  H      0.160692    1.253259    1.972077
  H      0.891681   -0.244609    2.464186
  H      2.180832    1.979534    0.952846
  H      3.389571   -1.821849    0.287996
  H      4.111973   -1.547786    1.868182
  H      2.362899   -1.682951    1.704066
  H      5.227976    0.732050    1.371928
  H      4.324361    1.892280    0.403427
  H      5.412236   -0.541710   -0.462862

 Multiplicity           Mult            ....    1
 Number of Electrons    NEL             ....   90
 Basis Dimension        Dim             ....  328

ORBITAL ENERGIES
----------------

  NO   OCC          E(Eh)            E(eV)
   0   2.0000      -1.145568       -31.1725
   1   2.0000      -1.032240       -28.0887
   2   2.0000      -0.960329       -26.1319
   3   2.0000      -0.928930       -25.2775
   4   2.0000      -0.902511       -24.5586
   5   2.0000      -0.884983       -24.0816
   6   2.0000      -0.846118       -23.0240
   7   2.0000      -0.830731       -22.6053
   8   2.0000      -0.810847       -22.0643
   9   2.0000      -0.803887       -21.8749
  10   2.0000      -0.757853       -20.6222
  11   2.0000      -0.729672       -19.8554
  12   2.0000      -0.719592       -19.5811
  13   2.0000      -0.672196       -18.2914
  14   2.0000      -0.652095       -17.7444
  15   2.0000      -0.627535       -17.0761
  16   2.0000      -0.614917       -16.7328
  17   2.0000      -0.604293       -16.4437
  18   2.0000      -0.590185       -16.0597
  19   2.0000      -0.576843       -15.6967
  20   2.0000      -0.559723       -15.2308
  21   2.0000      -0.553522       -15.0621
  22   2.0000      -0.542494       -14.7620
  23   2.0000      -0.532435       -14.4883
  24   2.0000      -0.531757       -14.4699
  25   2.0000      -0.518721       -14.1151
  26   2.0000      -0.517409       -14.0794
  27   2.0000      -0.508243       -13.8300
  28   2.0000      -0.503337       -13.6965
  29   2.0000      -0.494082       -13.4447
  30   2.0000      -0.491005       -13.3609
  31   2.0000      -0.481636       -13.1060
  32   2.0000      -0.474067       -12.9000
  33   2.0000      -0.469557       -12.7773
  34   2.0000      -0.459247       -12.4968
  35   2.0000      -0.452295       -12.3076
  36   2.0000      -0.442015       -12.0278
  37   2.0000      -0.431209       -11.7338
  38   2.0000      -0.429997       -11.7008
  39   2.0000      -0.395751       -10.7689
  40   2.0000      -0.392425       -10.6784
  41   2.0000      -0.383267       -10.4292
  42   2.0000      -0.377278       -10.2662
  43   2.0000      -0.336916        -9.1679
  44   2.0000      -0.321330        -8.7438
  45   0.0000       0.076353         2.0777
  46   0.0000       0.084014         2.2861
  47   0.0000       0.091921         2.5013
  48   0.0000       0.098776         2.6878
  49   0.0000       0.101333         2.7574

MULLIKEN ATOMIC CHARGES
-----------------------
   0 C :   -0.040091
   1 C :   -0.083271
   2 C :   -0.030556
   3 C :   -0.051763
   4 C :   -0.033069
   5 C :    0.006184
   6 C :   -0.028790
   7 C :   -0.168207
   8 C :    0.007273
   9 C :    0.008813
  10 C :   -0.074774
  11 C :   -0.014157
  12 C :   -0.031930
  13 C :   -0.069879
  14 C :    0.090478
  15 O :   -0.313754
  16 H :    0.034829
  17 H :    0.025764
  18 H :    0.039341
  19 H :    0.016698
  20 H :    0.040932
  21 H :    0.032924
  22 H :    0.032170
  23 H :    0.024357
  24 H :    0.034245
  25 H :    0.024403
  26 H :    0.038718
  27 H :    0.014494
  28 H :    0.020248
  29 H :    0.035652
  30 H :    0.020509
  31 H :    0.028526
  32 H :    0.042100
  33 H :    0.000783
  34 H :    0.044157
  35 H :    0.035670
  36 H :    0.028512
  37 H :    0.028107
  38 H :    0.039313
  39 H :    0.145041
Sum of atomic charges:   -0.0000000

LOEWDIN ATOMIC CHARGES
----------------------
   0 C :   -0.110406
   1 C :   -0.039745
   2 C :   -0.053072
   3 C :   -0.082299
   4 C :   -0.037030
   5 C :   -0.049995
   6 C :   -0.030345
   7 C :   -0.044101
   8 C :   -0.095617
   9 C :   -0.070380
  10 C :   -0.085771
  11 C :   -0.040224
  12 C :   -0.053396
  13 C :   -0.109531
  14 C :   -0.046206
  15 O :   -0.072715
  16 H :    0.049020
  17 H :    0.050173
  18 H :    0.050145
  19 H :    0.031823
  20 H :    0.048539
  21 H :    0.044455
  22 H :    0.030951
  23 H :    0.033409
  24 H :    0.036544
  25 H :    0.034394
  26 H :    0.048646
  27 H :    0.040820
  28 H :    0.041157
  29 H :    0.040712
  30 H :    0.045268
  31 H :    0.047202
  32 H :    0.047305
  33 H :    0.034168
  34 H :    0.048311
  35 H :    0.047543
  36 H :    0.049493
  37 H :    0.041268
  38 H :    0.057545
  39 H :    0.021942

  Mayer bond orders larger than 0.100000
B(  0-C ,  1-C ) :   1.0397 B(  0-C , 16-H ) :   0.9768 B(  0-C , 17-H ) :   0.9890
B(  0-C , 18-H ) :   0.9772 B(  1-C ,  2-C ) :   1.9083 B(  1-C ,  6-C ) :   1.0232
B(  2-C ,  3-C ) :   1.0222 B(  2-C , 19-H ) :   0.9837 B(  3-C ,  4-C ) :   1.0027
B(  3-C , 20-H ) :   0.9849 B(  3-C , 21-H ) :   0.9834 B(  4-C ,  5-C ) :   0.9792
B(  4-C ,  7-C ) :   0.9583 B(  4-C , 22-H ) :   1.0029 B(  5-C ,  6-C ) :   0.9723
B(  5-C , 23-H ) :   1.0019 B(  5-C , 24-H ) :   1.0024 B(  6-C ,  7-C ) :   0.9645
B(  6-C , 25-H ) :   0.9987 B(  7-C ,  8-C ) :   1.0252 B(  7-C ,  9-C ) :   1.0081
B(  8-C , 26-H ) :   0.9874 B(  8-C , 27-H ) :   0.9896 B(  8-C , 28-H ) :   0.9864
B(  9-C , 10-C ) :   0.9704 B(  9-C , 29-H ) :   0.9867 B(  9-C , 30-H ) :   0.9888
B( 10-C , 11-C ) :   1.0253 B( 10-C , 31-H ) :   0.9917 B( 10-C , 32-H ) :   0.9940
B( 11-C , 12-C ) :   1.8964 B( 11-C , 33-H ) :   0.9966 B( 12-C , 13-C ) :   1.0244
B( 12-C , 14-C ) :   1.0133 B( 13-C , 34-H ) :   0.9745 B( 13-C , 35-H ) :   0.9809
B( 13-C , 36-H ) :   0.9930 B( 14-C , 15-O ) :   0.9471 B( 14-C , 37-H ) :   0.9957
B( 14-C , 38-H ) :   1.0094 B( 15-O , 39-H ) :   1.0691

Dispersion correction           -0.053087834
FINAL SINGLE POINT ENERGY      -115.943796417144

DIPOLE MOMENT
-------------

Method             : SCF
Type of density    : Electron Density
Multiplicity       :   1
Irrep              :   0
Energy             :  -115.8907085835449351 Eh
Relativity type    :
Basis              : AO
                                X                 Y                 Z
Electronic contribution:     -4.823806917       2.487782585       0.305936812
Nuclear contribution   :      4.775152442      -2.903118433       0.209968753
                        -----------------------------------------
Total Dipole Moment    :     -0.048654475      -0.415335847       0.515905565
                        -----------------------------------------
Magnitude (a.u.)       :      0.664100652
Magnitude (Debye)      :      1.688009710

VIBRATIONAL FREQUENCIES
-----------------------

Scaling factor for frequencies =  1.000000000  (already applied!)

     0:       0.00 cm**-1
     1:       0.00 cm**-1
     2:       0.00 cm**-1
     3:       0.00 cm**-1
     4:       0.00 cm**-1
     5:       0.00 cm**-1
     6:      21.75 cm**-1
     7:      33.59 cm**-1
     8:      59.92 cm**-1
     9:      79.08 cm**-1
    10:      99.56 cm**-1
    11:     116.39 cm**-1
    12:     147.46 cm**-1
    13:     174.01 cm**-1
    14:     199.01 cm**-1
    15:     204.18 cm**-1
    16:     222.00 cm**-1
    17:     236.76 cm**-1
    18:     246.25 cm**-1
    19:     299.32 cm**-1
    20:     302.72 cm**-1
    21:     324.44 cm**-1
    22:     345.41 cm**-1
    23:     359.57 cm**-1
    24:     399.33 cm**-1
    25:     411.15 cm**-1
    26:     445.15 cm**-1
    27:     457.71 cm**-1
    28:     478.56 cm**-1
    29:     513.19 cm**-1
    30:     556.97 cm**-1
    31:     607.33 cm**-1
    32:     625.29 cm**-1
    33:     655.56 cm**-1
    34:     689.40 cm**-1
    35:     803.50 cm**-1
    36:     813.12 cm**-1
    37:     822.87 cm**-1
    38:     872.20 cm**-1
    39:     891.63 cm**-1
    40:     903.21 cm**-1
    41:     917.24 cm**-1
    42:     934.22 cm**-1
    43:     939.87 cm**-1
    44:     961.40 cm**-1
    45:     974.11 cm**-1
    46:     985.90 cm**-1
    47:     999.22 cm**-1
    48:    1016.50 cm**-1
    49:    1030.06 cm**-1
    50:    1058.59 cm**-1
    51:    1065.46 cm**-1
    52:    1077.31 cm**-1
    53:    1086.13 cm**-1
    54:    1094.13 cm**-1
    55:    1100.53 cm**-1
    56:    1107.96 cm**-1
    57:    1133.70 cm**-1
    58:    1139.51 cm**-1
    59:    1150.78 cm**-1
    60:    1161.72 cm**-1
    61:    1197.22 cm**-1
    62:    1212.89 cm**-1
    63:    1226.42 cm**-1
    64:    1232.95 cm**-1
    65:    1249.40 cm**-1
    66:    1281.17 cm**-1
    67:    1287.98 cm**-1
    68:    1301.40 cm**-1
    69:    1311.66 cm**-1
    70:    1318.27 cm**-1
    71:    1347.37 cm**-1
    72:    1381.96 cm**-1
    73:    1390.07 cm**-1
    74:    1398.82 cm**-1
    75:    1408.47 cm**-1
    76:    1412.20 cm**-1
    77:    1415.46 cm**-1
    78:    1420.55 cm**-1
    79:    1435.05 cm**-1
    80:    1448.80 cm**-1
    81:    1449.77 cm**-1
    82:    1461.81 cm**-1
    83:    1507.47 cm**-1
    84:    1508.30 cm**-1
    85:    1514.56 cm**-1
    86:    1516.10 cm**-1
    87:    1518.51 cm**-1
    88:    1519.88 cm**-1
    89:    1527.05 cm**-1
    90:    1528.24 cm**-1
    91:    1534.65 cm**-1
    92:    1538.30 cm**-1
    93:    1548.26 cm**-1
    94:    1791.50 cm**-1
    95:    1801.16 cm**-1
    96:    3071.58 cm**-1
    97:    3082.02 cm**-1
    98:    3091.42 cm**-1
    99:    3091.89 cm**-1
   100:    3101.23 cm**-1
   101:    3102.41 cm**-1
   102:    3108.81 cm**-1
   103:    3123.63 cm**-1
   104:    3126.11 cm**-1
   105:    3135.83 cm**-1
   106:    3146.13 cm**-1
   107:    3149.88 cm**-1
   108:    3164.69 cm**-1
   109:    3168.26 cm**-1
   110:    3184.81 cm**-1
   111:    3186.17 cm**-1
   112:    3192.55 cm**-1
   113:    3202.18 cm**-1
   114:    3204.00 cm**-1
   115:    3216.61 cm**-1
   116:    3217.76 cm**-1
   117:    3221.72 cm**-1
   118:    3227.95 cm**-1
   119:    3978.14 cm**-1

IR SPECTRUM
-----------

 Mode   freq       eps      Int      T**2         TX        TY        TZ
       cm**-1   L/(mol*cm) km/mol    a.u.
----------------------------------------------------------------------------
  6:     21.75   0.000074    0.38  0.001069  ( 0.010831 -0.026786 -0.015294)
  7:     33.59   0.000059    0.30  0.000551  ( 0.011920 -0.016187 -0.012120)
  8:     59.92   0.000157    0.80  0.000819  (-0.023050 -0.016537 -0.003820)
  9:     79.08   0.000332    1.68  0.001308  ( 0.009743  0.027896  0.020859)
 10:     99.56   0.000251    1.27  0.000787  ( 0.021523 -0.017967  0.000695)
 11:    116.39   0.000462    2.34  0.001240  (-0.023716 -0.023219 -0.011751)
 12:    147.46   0.002852   14.41  0.006036  ( 0.071560  0.027766  0.012019)
 13:    174.01   0.001217    6.15  0.002183  ( 0.038177  0.026803 -0.002574)
 14:    199.01   0.000617    3.12  0.000967  ( 0.029933  0.007851  0.003111)
 15:    204.18   0.001635    8.26  0.002500  ( 0.047710  0.014917  0.000886)
 16:    222.00   0.021592  109.12  0.030352  (-0.166887 -0.049788 -0.004698)
 17:    236.76   0.001250    6.32  0.001648  (-0.039063 -0.010729  0.002576)
 18:    246.25   0.001095    5.53  0.001388  (-0.033392 -0.013044 -0.010119)
 19:    299.32   0.000092    0.46  0.000096  (-0.007866 -0.004910  0.003105)
 20:    302.72   0.001159    5.86  0.001195  ( 0.032319  0.011680 -0.003774)
 21:    324.44   0.000404    2.04  0.000389  (-0.016407 -0.001987 -0.010760)
 22:    345.41   0.000593    3.00  0.000536  ( 0.022516 -0.004569  0.002793)
 23:    359.57   0.000020    0.10  0.000017  ( 0.000219 -0.004119 -0.000659)
 24:    399.33   0.000290    1.47  0.000227  (-0.012619  0.002895 -0.007706)
 25:    411.15   0.000060    0.30  0.000046  (-0.005137 -0.000878 -0.004316)
 26:    445.15   0.000352    1.78  0.000247  ( 0.015096 -0.000182  0.004331)
 27:    457.71   0.000280    1.41  0.000191  ( 0.009049 -0.005960  0.008569)
 28:    478.56   0.000297    1.50  0.000194  ( 0.010960 -0.003741  0.007717)
 29:    513.19   0.000260    1.31  0.000158  (-0.009176 -0.002691 -0.008161)
 30:    556.97   0.001006    5.08  0.000564  ( 0.013665  0.006310  0.018360)
 31:    607.33   0.001141    5.77  0.000586  (-0.018367 -0.010680 -0.011611)
 32:    625.29   0.000273    1.38  0.000136  (-0.000894 -0.010597 -0.004828)
 33:    655.56   0.000727    3.68  0.000346  ( 0.013295  0.012792  0.002422)
 34:    689.40   0.000038    0.19  0.000017  ( 0.000452  0.001160 -0.003951)
 35:    803.50   0.001605    8.11  0.000623  (-0.016650 -0.004662 -0.018008)
 36:    813.12   0.001962    9.91  0.000753  (-0.027157 -0.002216 -0.003249)
 37:    822.87   0.002211   11.17  0.000839  (-0.023750  0.012273 -0.011130)
 38:    872.20   0.000223    1.13  0.000080  (-0.006592 -0.002943 -0.005271)
 39:    891.63   0.000486    2.46  0.000170  ( 0.012388  0.000303  0.004063)
 40:    903.21   0.001200    6.06  0.000415  (-0.000178  0.007485  0.018934)
 41:    917.24   0.001456    7.36  0.000495  ( 0.008559 -0.005982 -0.019657)
 42:    934.22   0.001019    5.15  0.000340  ( 0.009085 -0.008093  0.013869)
 43:    939.87   0.000983    4.97  0.000326  ( 0.009625  0.011396  0.010186)
 44:    961.40   0.001592    8.04  0.000517  (-0.017319 -0.000982  0.014690)
 45:    974.11   0.002579   13.03  0.000826  (-0.009013  0.013743  0.023579)
 46:    985.90   0.002006   10.14  0.000635  ( 0.014015 -0.005618 -0.020173)
 47:    999.22   0.000542    2.74  0.000169  ( 0.008127  0.005403 -0.008606)
 48:   1016.50   0.000131    0.66  0.000040  (-0.001667 -0.004899 -0.003651)
 49:   1030.06   0.000648    3.28  0.000196  (-0.013574 -0.002510  0.002426)
 50:   1058.59   0.000858    4.33  0.000253  ( 0.012785 -0.002215 -0.009188)
 51:   1065.46   0.001543    7.80  0.000452  ( 0.005220  0.001428  0.020556)
 52:   1077.31   0.009057   45.77  0.002623  ( 0.039047 -0.009428 -0.031779)
 53:   1086.13   0.000521    2.64  0.000150  ( 0.010929 -0.001400 -0.005332)
 54:   1094.13   0.000574    2.90  0.000164  (-0.010607  0.006216  0.003529)
 55:   1100.53   0.014047   70.99  0.003983  (-0.037049  0.015696  0.048624)
 56:   1107.96   0.000049    0.25  0.000014  (-0.003668  0.000475  0.000379)
 57:   1133.70   0.002243   11.33  0.000617  (-0.004045  0.006357  0.023675)
 58:   1139.51   0.000797    4.03  0.000218  (-0.010527 -0.004719  0.009235)
 59:   1150.78   0.000224    1.13  0.000061  ( 0.004174 -0.005194  0.004056)
 60:   1161.72   0.000985    4.98  0.000265  (-0.007850 -0.005204  0.013266)
 61:   1197.22   0.000543    2.74  0.000141  (-0.008964  0.002670  0.007349)
 62:   1212.89   0.000622    3.14  0.000160  ( 0.006339 -0.010046 -0.004350)
 63:   1226.42   0.006322   31.95  0.001609  (-0.033421  0.005100  0.021582)
 64:   1232.95   0.001213    6.13  0.000307  ( 0.001681  0.001862  0.017338)
 65:   1249.40   0.000449    2.27  0.000112  ( 0.005891 -0.005568 -0.006812)
 66:   1281.17   0.001205    6.09  0.000294  (-0.016589  0.004266 -0.000371)
 67:   1287.98   0.000613    3.10  0.000149  (-0.004731 -0.002481 -0.010959)
 68:   1301.40   0.000174    0.88  0.000042  (-0.005389  0.000664  0.003500)
 69:   1311.66   0.000266    1.34  0.000063  ( 0.007658  0.001598  0.001448)
 70:   1318.27   0.000290    1.47  0.000069  (-0.007943  0.001178  0.002037)
 71:   1347.37   0.001116    5.64  0.000258  (-0.014659  0.005070 -0.004229)
 72:   1381.96   0.000355    1.79  0.000080  ( 0.002532 -0.004689 -0.007191)
 73:   1390.07   0.002524   12.76  0.000567  ( 0.006708  0.002112 -0.022742)
 74:   1398.82   0.000441    2.23  0.000098  ( 0.006169  0.001094  0.007688)
 75:   1408.47   0.000242    1.22  0.000054  (-0.001553  0.001638  0.006961)
 76:   1412.20   0.000301    1.52  0.000066  (-0.006809 -0.004114 -0.001776)
 77:   1415.46   0.000407    2.06  0.000090  (-0.003696 -0.007886 -0.003717)
 78:   1420.55   0.001500    7.58  0.000330  (-0.017399 -0.003221 -0.004057)
 79:   1435.05   0.007884   39.84  0.001715  ( 0.030315 -0.016905 -0.022578)
 80:   1448.80   0.001027    5.19  0.000221  (-0.009582 -0.006493  0.009339)
 81:   1449.77   0.002633   13.31  0.000567  ( 0.008090  0.022340  0.001500)
 82:   1461.81   0.001071    5.41  0.000229  (-0.002606  0.014051 -0.004949)
 83:   1507.47   0.002086   10.54  0.000432  (-0.018048  0.006069 -0.008323)
 84:   1508.30   0.000505    2.55  0.000105  (-0.007314  0.004467  0.005574)
 85:   1514.56   0.001512    7.64  0.000312  (-0.006833  0.007515 -0.014436)
 86:   1516.10   0.001654    8.36  0.000340  ( 0.015034  0.002679 -0.010356)
 87:   1518.51   0.000562    2.84  0.000115  (-0.004899 -0.004938 -0.008189)
 88:   1519.88   0.003480   17.59  0.000715  ( 0.008098  0.000414 -0.025472)
 89:   1527.05   0.001855    9.37  0.000379  ( 0.008012  0.007145  0.016242)
 90:   1528.24   0.000513    2.59  0.000105  ( 0.009681 -0.003297 -0.000483)
 91:   1534.65   0.001907    9.64  0.000388  (-0.003090 -0.014101  0.013396)
 92:   1538.30   0.003708   18.74  0.000752  ( 0.018708 -0.019879 -0.002665)
 93:   1548.26   0.001875    9.48  0.000378  ( 0.010438 -0.001941  0.016288)
 94:   1791.50   0.000544    2.75  0.000095  (-0.003046  0.002441  0.008917)
 95:   1801.16   0.000352    1.78  0.000061  (-0.003867 -0.006592  0.001594)
 96:   3071.58   0.011339   57.30  0.001152  ( 0.024746  0.009411  0.021238)
 97:   3082.02   0.008162   41.25  0.000826  (-0.009438  0.006625  0.026334)
 98:   3091.42   0.005408   27.33  0.000546  (-0.006440 -0.017752 -0.013760)
 99:   3091.89   0.007652   38.67  0.000772  (-0.015465  0.022838 -0.003399)
100:   3101.23   0.002835   14.33  0.000285  ( 0.002467 -0.016344  0.003475)
101:   3102.41   0.004978   25.16  0.000501  ( 0.007291 -0.007782 -0.019673)
102:   3108.81   0.006024   30.44  0.000605  ( 0.020116  0.007788 -0.011805)
103:   3123.63   0.005429   27.43  0.000542  ( 0.020540 -0.000813  0.010944)
104:   3126.11   0.007961   40.23  0.000795  (-0.004622 -0.022065 -0.016926)
105:   3135.83   0.008561   43.26  0.000852  (-0.012524  0.020290  0.016833)
106:   3146.13   0.007486   37.83  0.000742  (-0.013293  0.012200 -0.020419)
107:   3149.88   0.003707   18.73  0.000367  ( 0.013227 -0.013523  0.003072)
108:   3164.69   0.002199   11.11  0.000217  (-0.008784 -0.002802 -0.011482)
109:   3168.26   0.001978    9.99  0.000195  (-0.012052  0.003294 -0.006220)
110:   3184.81   0.002496   12.61  0.000245  ( 0.007206  0.008285 -0.011134)
111:   3186.17   0.002344   11.84  0.000230  ( 0.004470 -0.014399  0.001493)
112:   3192.55   0.002147   10.85  0.000210  ( 0.002296 -0.010801 -0.009376)
113:   3202.18   0.002444   12.35  0.000238  ( 0.007601  0.008669 -0.010258)
114:   3204.00   0.004754   24.02  0.000463  (-0.020359  0.000442 -0.006952)
115:   3216.61   0.001376    6.95  0.000133  ( 0.010570  0.000954 -0.004563)
116:   3217.76   0.005896   29.79  0.000572  ( 0.007280  0.022539 -0.003280)
117:   3221.72   0.004283   21.64  0.000415  ( 0.001187  0.012201 -0.016265)
118:   3227.95   0.003709   18.75  0.000359  (-0.011530 -0.012414  0.008458)
119:   3978.14   0.011030   55.74  0.000865  (-0.018669  0.022610  0.002343)

--------------------------
THERMOCHEMISTRY AT 298.15K
--------------------------

Temperature         ...   298.15 K
Pressure            ...     1.00 atm
Total Mass          ...   220.36 AMU
Quasi RRHO          ...     True
Cut-Off Frequency   ...     1.00 cm^-1

Throughout the following assumptions are being made:
  (1) The electronic state is orbitally nondegenerate
  (2) There are no thermally accessible electronically excited states
  (3) Hindered rotations indicated by low frequency modes are not
      treated as such but are treated as vibrations and this may
      cause some error
  (4) All equations used are the standard statistical mechanics
      equations for an ideal gas
  (5) All vibrations are strictly harmonic

freq.      21.75  E(vib)   ...       0.56
freq.      33.59  E(vib)   ...       0.55
freq.      59.92  E(vib)   ...       0.51
freq.      79.08  E(vib)   ...       0.49
freq.      99.56  E(vib)   ...       0.46
freq.     116.39  E(vib)   ...       0.44
freq.     147.46  E(vib)   ...       0.41
freq.     174.01  E(vib)   ...       0.38
freq.     199.01  E(vib)   ...       0.35
freq.     204.18  E(vib)   ...       0.35
freq.     222.00  E(vib)   ...       0.33
freq.     236.76  E(vib)   ...       0.32
freq.     246.25  E(vib)   ...       0.31
freq.     299.32  E(vib)   ...       0.26
freq.     302.72  E(vib)   ...       0.26
freq.     324.44  E(vib)   ...       0.25
freq.     345.41  E(vib)   ...       0.23
freq.     359.57  E(vib)   ...       0.22
freq.     399.33  E(vib)   ...       0.19
freq.     411.15  E(vib)   ...       0.19
freq.     445.15  E(vib)   ...       0.17
freq.     457.71  E(vib)   ...       0.16
freq.     478.56  E(vib)   ...       0.15
freq.     513.19  E(vib)   ...       0.13
freq.     556.97  E(vib)   ...       0.12
freq.     607.33  E(vib)   ...       0.10
freq.     625.29  E(vib)   ...       0.09
freq.     655.56  E(vib)   ...       0.08
freq.     689.40  E(vib)   ...       0.07
freq.     803.50  E(vib)   ...       0.05
freq.     813.12  E(vib)   ...       0.05
freq.     822.87  E(vib)   ...       0.05
freq.     872.20  E(vib)   ...       0.04
freq.     891.63  E(vib)   ...       0.03
freq.     903.21  E(vib)   ...       0.03
freq.     917.24  E(vib)   ...       0.03
freq.     934.22  E(vib)   ...       0.03
freq.     939.87  E(vib)   ...       0.03
freq.     961.40  E(vib)   ...       0.03
freq.     974.11  E(vib)   ...       0.03
freq.     985.90  E(vib)   ...       0.02
freq.     999.22  E(vib)   ...       0.02
freq.    1016.50  E(vib)   ...       0.02
freq.    1030.06  E(vib)   ...       0.02
freq.    1058.59  E(vib)   ...       0.02
freq.    1065.46  E(vib)   ...       0.02
freq.    1077.31  E(vib)   ...       0.02
freq.    1086.13  E(vib)   ...       0.02
freq.    1094.13  E(vib)   ...       0.02
freq.    1100.53  E(vib)   ...       0.02
freq.    1107.96  E(vib)   ...       0.02
freq.    1133.70  E(vib)   ...       0.01
freq.    1139.51  E(vib)   ...       0.01
freq.    1150.78  E(vib)   ...       0.01
freq.    1161.72  E(vib)   ...       0.01
freq.    1197.22  E(vib)   ...       0.01
freq.    1212.89  E(vib)   ...       0.01
freq.    1226.42  E(vib)   ...       0.01
freq.    1232.95  E(vib)   ...       0.01
freq.    1249.40  E(vib)   ...       0.01
freq.    1281.17  E(vib)   ...       0.01
freq.    1287.98  E(vib)   ...       0.01
freq.    1301.40  E(vib)   ...       0.01
freq.    1311.66  E(vib)   ...       0.01
freq.    1318.27  E(vib)   ...       0.01
freq.    1347.37  E(vib)   ...       0.01
freq.    1381.96  E(vib)   ...       0.01
freq.    1390.07  E(vib)   ...       0.00
freq.    1398.82  E(vib)   ...       0.00
freq.    1408.47  E(vib)   ...       0.00
freq.    1412.20  E(vib)   ...       0.00
freq.    1415.46  E(vib)   ...       0.00
freq.    1420.55  E(vib)   ...       0.00
freq.    1435.05  E(vib)   ...       0.00
freq.    1448.80  E(vib)   ...       0.00
freq.    1449.77  E(vib)   ...       0.00
freq.    1461.81  E(vib)   ...       0.00
freq.    1507.47  E(vib)   ...       0.00
freq.    1508.30  E(vib)   ...       0.00
freq.    1514.56  E(vib)   ...       0.00
freq.    1516.10  E(vib)   ...       0.00
freq.    1518.51  E(vib)   ...       0.00
freq.    1519.88  E(vib)   ...       0.00
freq.    1527.05  E(vib)   ...       0.00
freq.    1528.24  E(vib)   ...       0.00
freq.    1534.65  E(vib)   ...       0.00
freq.    1538.30  E(vib)   ...       0.00
freq.    1548.26  E(vib)   ...       0.00
freq.    1791.50  E(vib)   ...       0.00
freq.    1801.16  E(vib)   ...       0.00
freq.    3071.58  E(vib)   ...       0.00
freq.    3082.02  E(vib)   ...       0.00
freq.    3091.42  E(vib)   ...       0.00
freq.    3091.89  E(vib)   ...       0.00
freq.    3101.23  E(vib)   ...       0.00
freq.    3102.41  E(vib)   ...       0.00
freq.    3108.81  E(vib)   ...       0.00
freq.    3123.63  E(vib)   ...       0.00
freq.    3126.11  E(vib)   ...       0.00
freq.    3135.83  E(vib)   ...       0.00
freq.    3146.13  E(vib)   ...       0.00
freq.    3149.88  E(vib)   ...       0.00
freq.    3164.69  E(vib)   ...       0.00
freq.    3168.26  E(vib)   ...       0.00
freq.    3184.81  E(vib)   ...       0.00
freq.    3186.17  E(vib)   ...       0.00
freq.    3192.55  E(vib)   ...       0.00
freq.    3202.18  E(vib)   ...       0.00
freq.    3204.00  E(vib)   ...       0.00
freq.    3216.61  E(vib)   ...       0.00
freq.    3217.76  E(vib)   ...       0.00
freq.    3221.72  E(vib)   ...       0.00
freq.    3227.95  E(vib)   ...       0.00
freq.    3978.14  E(vib)   ...       0.00

------------
INNER ENERGY
------------

The inner energy is: U= E(el) + E(ZPE) + E(vib) + E(rot) + E(trans)
    E(el)   - is the total energy from the electronic structure calculation
              = E(kin-el) + E(nuc-el) + E(el-el) + E(nuc-nuc)
    E(ZPE)  - the the zero temperature vibrational energy from the frequency calculation
    E(vib)  - the the finite temperature correction to E(ZPE) due to population
              of excited vibrational states
    E(rot)  - is the rotational thermal energy
    E(trans)- is the translational thermal energy

Summary of contributions to the inner energy U:
Electronic energy                ...   -115.94379642 Eh
Zero point energy                ...      0.36858797 Eh     231.29 kcal/mol
Thermal vibrational correction   ...      0.01425938 Eh       8.95 kcal/mol
Thermal rotational correction    ...      0.00141627 Eh       0.89 kcal/mol
Thermal translational correction ...      0.00141627 Eh       0.89 kcal/mol
-----------------------------------------------------------------------
Total thermal energy                   -115.55811653 Eh

Summary of corrections to the electronic energy:
(perhaps to be used in another calculation)
Total thermal correction                  0.01709192 Eh      10.73 kcal/mol
Non-thermal (ZPE) correction              0.36858797 Eh     231.29 kcal/mol

Rotational constants in cm-1:     0.034335     0.008388     0.008154

                             ****ORCA TERMINATED NORMALLY****
TOTAL RUN TIME: 0 days 1 hours 2 minutes 6 seconds 311 msec
