                         Program Version 6.0.1  -  RELEASE   -
|  1> ! wB97X-3c OPT FREQ TightSCF
|  2> %pal
|  3>   nprocs 40
|  4> end
|  5> * xyz 0 1
|  6> C     -3.253883    -0.811201     0.372693
|  7> C     -2.386215    -0.009764    -0.619457
|  8> C     -2.117053     1.422735    -0.120786
|  9> C     -0.640910     1.065871     0.086928
| 10> C     -0.863261    -0.300413    -0.574573
| 11> C     -0.369668    -1.508040     0.255595
| 12> C      1.141845    -1.773313     0.052481
| 13> C      2.055479    -1.260048     1.195025
| 14> C      2.798695     0.045753     1.136005
| 15> O      1.566124    -0.092622     1.807711
| 16> C      2.697239     0.996541    -0.078875
| 17> C      1.715641     2.175120     0.108408
| 18> C      0.406704     1.920780    -0.607985
| 19> C      0.268954     2.324763    -1.884355
| 20> C      2.511005    -2.274738     2.244960
| 21> C     -2.974344    -0.057353    -2.040388
| 22> H     -2.861109    -0.736146     1.408766
| 23> H     -4.290976    -0.413219     0.373879
| 24> H     -3.290911    -1.880685     0.076648
| 25> H     -2.627572     1.671177     0.836380
| 26> H     -2.290698     2.205008    -0.890314
| 27> H     -0.458968     0.992866     1.179090
| 28> H     -0.444839    -0.344318    -1.606462
| 29> H     -0.610298    -1.398405     1.334694
| 30> H     -0.918823    -2.403494    -0.107704
| 31> H      1.277745    -2.875822     0.000435
| 32> H      1.485452    -1.426039    -0.939565
| 33> H      3.613540     0.225949     1.869315
| 34> H      3.712472     1.428592    -0.211482
| 35> H      2.504937     0.458827    -1.026849
| 36> H      1.532212     2.379256     1.185320
| 37> H      2.182631     3.102506    -0.292365
| 38> H     -0.617424     2.096850    -2.462489
| 39> H      1.058902     2.880234    -2.380722
| 40> H      3.040543    -1.785097     3.090570
| 41> H      1.628687    -2.814227     2.649163
| 42> H      3.197440    -3.008625     1.773807
| 43> H     -2.370511     0.542223    -2.752504
| 44> H     -4.009467     0.345522    -2.038445
| 45> H     -2.999316    -1.107003    -2.402554
| 46> *
| 47>
| 48>                          ****END OF INPUT****
 Total Charge           Charge          ....    0
 Multiplicity           Mult            ....    1
 Number of Electrons    NEL             ....   90
Dispersion correction           -0.054145381
FINAL SINGLE POINT ENERGY      -115.917802523545
Dispersion correction             ... done (  0.1 sec)
Dispersion correction           -0.054594945
FINAL SINGLE POINT ENERGY      -115.933720831072
Dispersion correction             ... done (  0.1 sec)
Dispersion correction           -0.054610763
FINAL SINGLE POINT ENERGY      -115.937920527671
Dispersion correction             ... done (  0.1 sec)
FINAL SINGLE POINT ENERGY      -115.939226451555
FINAL SINGLE POINT ENERGY      -115.939891158283
FINAL SINGLE POINT ENERGY      -115.940604822398
FINAL SINGLE POINT ENERGY      -115.940969903814
FINAL SINGLE POINT ENERGY      -115.941257059059
FINAL SINGLE POINT ENERGY      -115.941598486318
FINAL SINGLE POINT ENERGY      -115.941799877543
FINAL SINGLE POINT ENERGY      -115.942038468543
FINAL SINGLE POINT ENERGY      -115.942141862473
FINAL SINGLE POINT ENERGY      -115.942182812214
Dispersion correction             ... done (  0.1 sec)
Dispersion correction           -0.054674918
FINAL SINGLE POINT ENERGY      -115.942195514297
Dispersion correction             ... done (  0.1 sec)
Dispersion correction           -0.054662104
FINAL SINGLE POINT ENERGY      -115.942199672805
Dispersion correction             ... done (  0.1 sec)
                    ***********************HURRAY********************

CARTESIAN COORDINATES (ANGSTROEM)
---------------------------------
  C     -3.023400   -0.533460    0.752185
  C     -2.435232   -0.051585   -0.561625
  C     -2.067756    1.445122   -0.503520
  C     -0.624862    1.062620   -0.129054
  C     -0.920404   -0.340483   -0.700756
  C     -0.281472   -1.562670   -0.083326
  C      1.247983   -1.508125   -0.182502
  C      1.913776   -1.198481    1.138041
  C      2.622519    0.064331    1.365362
  O      1.324433   -0.146450    1.892960
  C      2.806764    1.161245    0.339549
  C      1.678160    2.197084    0.251364
  C      0.535572    1.849134   -0.671602
  C      0.578593    2.242608   -1.939350
  C      2.275767   -2.400276    1.963264
  C     -3.299044   -0.491487   -1.723146
  H     -2.425234   -0.221593    1.607749
  H     -4.026975   -0.126660    0.884935
  H     -3.100559   -1.621220    0.777149
  H     -2.611163    2.065815    0.209185
  H     -2.124443    1.911111   -1.486175
  H     -0.534038    0.994532    0.951325
  H     -0.673891   -0.321106   -1.766654
  H     -0.578086   -1.655464    0.961899
  H     -0.658155   -2.451736   -0.593344
  H      1.641798   -2.462592   -0.532242
  H      1.531180   -0.773060   -0.935109
  H      3.390367    0.044421    2.135276
  H      3.722880    1.689778    0.603952
  H      2.983675    0.736052   -0.649413
  H      1.295750    2.396167    1.253017
  H      2.121082    3.125883   -0.107075
  H     -0.211892    2.010118   -2.641324
  H      1.412858    2.815599   -2.324147
  H      2.660450   -2.098331    2.934829
  H      1.397346   -3.026076    2.123653
  H      3.029558   -3.001094    1.455762
  H     -2.892657   -0.139005   -2.671354
  H     -4.313665   -0.100821   -1.628150
  H     -3.367581   -1.579843   -1.771590

 Multiplicity           Mult            ....    1
 Number of Electrons    NEL             ....   90
 Basis Dimension        Dim             ....  328

ORBITAL ENERGIES
----------------

  NO   OCC          E(Eh)            E(eV)
   0   2.0000      -1.209016       -32.8990
   1   2.0000      -1.008609       -27.4456
   2   2.0000      -0.949490       -25.8369
   3   2.0000      -0.929653       -25.2972
   4   2.0000      -0.895817       -24.3764
   5   2.0000      -0.877276       -23.8719
   6   2.0000      -0.857071       -23.3221
   7   2.0000      -0.816811       -22.2266
   8   2.0000      -0.807634       -21.9768
   9   2.0000      -0.797479       -21.7005
  10   2.0000      -0.754015       -20.5178
  11   2.0000      -0.729950       -19.8630
  12   2.0000      -0.717758       -19.5312
  13   2.0000      -0.677540       -18.4368
  14   2.0000      -0.643096       -17.4995
  15   2.0000      -0.639852       -17.4113
  16   2.0000      -0.617622       -16.8064
  17   2.0000      -0.602483       -16.3944
  18   2.0000      -0.583250       -15.8710
  19   2.0000      -0.577036       -15.7019
  20   2.0000      -0.565977       -15.4010
  21   2.0000      -0.550194       -14.9715
  22   2.0000      -0.544759       -14.8236
  23   2.0000      -0.534978       -14.5575
  24   2.0000      -0.532232       -14.4828
  25   2.0000      -0.526681       -14.3317
  26   2.0000      -0.511875       -13.9288
  27   2.0000      -0.503913       -13.7122
  28   2.0000      -0.496655       -13.5147
  29   2.0000      -0.485629       -13.2146
  30   2.0000      -0.475656       -12.9433
  31   2.0000      -0.472287       -12.8516
  32   2.0000      -0.468221       -12.7409
  33   2.0000      -0.465683       -12.6719
  34   2.0000      -0.460321       -12.5260
  35   2.0000      -0.451173       -12.2770
  36   2.0000      -0.444618       -12.0987
  37   2.0000      -0.436501       -11.8778
  38   2.0000      -0.429949       -11.6995
  39   2.0000      -0.403471       -10.9790
  40   2.0000      -0.386113       -10.5067
  41   2.0000      -0.379430       -10.3248
  42   2.0000      -0.376654       -10.2493
  43   2.0000      -0.371950       -10.1213
  44   2.0000      -0.334986        -9.1154
  45   0.0000       0.081259         2.2112
  46   0.0000       0.088871         2.4183
  47   0.0000       0.096787         2.6337
  48   0.0000       0.099148         2.6979
  49   0.0000       0.104175         2.8347

MULLIKEN ATOMIC CHARGES
-----------------------
   0 C :   -0.019415
   1 C :   -0.169672
   2 C :    0.027479
   3 C :   -0.050324
   4 C :   -0.024819
   5 C :   -0.009795
   6 C :   -0.005900
   7 C :    0.034892
   8 C :    0.130577
   9 O :   -0.369963
  10 C :   -0.064096
  11 C :   -0.024397
  12 C :   -0.091713
  13 C :   -0.002768
  14 C :   -0.023010
  15 C :   -0.008550
  16 H :    0.026180
  17 H :    0.026826
  18 H :    0.023944
  19 H :    0.028156
  20 H :    0.009792
  21 H :    0.042021
  22 H :    0.014572
  23 H :    0.031018
  24 H :    0.029519
  25 H :    0.031539
  26 H :    0.021189
  27 H :    0.020034
  28 H :    0.039082
  29 H :    0.041386
  30 H :    0.044589
  31 H :    0.030122
  32 H :    0.019081
  33 H :    0.017839
  34 H :    0.034291
  35 H :    0.031787
  36 H :    0.037455
  37 H :    0.021440
  38 H :    0.027273
  39 H :    0.022338
Sum of atomic charges:   -0.0000000

LOEWDIN ATOMIC CHARGES
----------------------
   0 C :   -0.105314
   1 C :   -0.067008
   2 C :   -0.039679
   3 C :   -0.041812
   4 C :   -0.039901
   5 C :   -0.069368
   6 C :   -0.059882
   7 C :   -0.047386
   8 C :   -0.021985
   9 O :   -0.089820
  10 C :   -0.074650
  11 C :   -0.070001
  12 C :   -0.035484
  13 C :   -0.083220
  14 C :   -0.098933
  15 C :   -0.111079
  16 H :    0.045839
  17 H :    0.044886
  18 H :    0.043114
  19 H :    0.033959
  20 H :    0.037867
  21 H :    0.040796
  22 H :    0.045155
  23 H :    0.044044
  24 H :    0.043325
  25 H :    0.050088
  26 H :    0.044536
  27 H :    0.042882
  28 H :    0.050941
  29 H :    0.044614
  30 H :    0.052337
  31 H :    0.052072
  32 H :    0.027913
  33 H :    0.030870
  34 H :    0.051908
  35 H :    0.049609
  36 H :    0.049295
  37 H :    0.041454
  38 H :    0.044676
  39 H :    0.043339

  Mayer bond orders larger than 0.100000
B(  0-C ,  1-C ) :   1.0079 B(  0-C , 16-H ) :   0.9893 B(  0-C , 17-H ) :   0.9905
B(  0-C , 18-H ) :   0.9902 B(  1-C ,  2-C ) :   0.9859 B(  1-C ,  4-C ) :   0.9845
B(  1-C , 15-C ) :   1.0227 B(  2-C ,  3-C ) :   0.9756 B(  2-C , 19-H ) :   1.0028
B(  2-C , 20-H ) :   0.9928 B(  3-C ,  4-C ) :   0.9510 B(  3-C , 12-C ) :   1.0573
B(  3-C , 21-H ) :   0.9775 B(  4-C ,  5-C ) :   0.9924 B(  4-C , 22-H ) :   0.9914
B(  5-C ,  6-C ) :   0.9811 B(  5-C , 23-H ) :   0.9880 B(  5-C , 24-H ) :   0.9954
B(  6-C ,  7-C ) :   1.0088 B(  6-C , 25-H ) :   0.9895 B(  6-C , 26-H ) :   0.9871
B(  7-C ,  8-C ) :   1.0113 B(  7-C ,  9-O ) :   0.8819 B(  7-C , 14-C ) :   1.0337
B(  8-C ,  9-O ) :   0.8977 B(  8-C , 10-C ) :   1.0046 B(  8-C , 27-H ) :   1.0172
B( 10-C , 11-C ) :   0.9716 B( 10-C , 28-H ) :   0.9962 B( 10-C , 29-H ) :   0.9867
B( 11-C , 12-C ) :   1.0107 B( 11-C , 30-H ) :   0.9864 B( 11-C , 31-H ) :   0.9968
B( 12-C , 13-C ) :   1.9482 B( 13-C , 32-H ) :   0.9810 B( 13-C , 33-H ) :   0.9777
B( 14-C , 34-H ) :   0.9852 B( 14-C , 35-H ) :   0.9830 B( 14-C , 36-H ) :   0.9824
B( 15-C , 37-H ) :   0.9897 B( 15-C , 38-H ) :   0.9879 B( 15-C , 39-H ) :   0.9874

Dispersion correction           -0.054665748
FINAL SINGLE POINT ENERGY      -115.942200421899

DIPOLE MOMENT
-------------

Method             : SCF
Type of density    : Electron Density
Multiplicity       :   1
Irrep              :   0
Energy             :  -115.8875346737542174 Eh
Relativity type    :
Basis              : AO
                                X                 Y                 Z
Electronic contribution:      6.231545505       4.760190744       1.891816134
Nuclear contribution   :     -5.652918540      -5.153725140      -2.082166886
                        -----------------------------------------
Total Dipole Moment    :      0.578626965      -0.393534396      -0.190350753
                        -----------------------------------------
Magnitude (a.u.)       :      0.725197831
Magnitude (Debye)      :      1.843306396

VIBRATIONAL FREQUENCIES
-----------------------

Scaling factor for frequencies =  1.000000000  (already applied!)

     0:       0.00 cm**-1
     1:       0.00 cm**-1
     2:       0.00 cm**-1
     3:       0.00 cm**-1
     4:       0.00 cm**-1
     5:       0.00 cm**-1
     6:      59.74 cm**-1
     7:      81.84 cm**-1
     8:      89.43 cm**-1
     9:     143.90 cm**-1
    10:     157.17 cm**-1
    11:     180.16 cm**-1
    12:     204.76 cm**-1
    13:     223.86 cm**-1
    14:     231.25 cm**-1
    15:     243.20 cm**-1
    16:     280.64 cm**-1
    17:     285.49 cm**-1
    18:     290.55 cm**-1
    19:     298.09 cm**-1
    20:     301.75 cm**-1
    21:     340.38 cm**-1
    22:     362.95 cm**-1
    23:     394.88 cm**-1
    24:     412.25 cm**-1
    25:     458.63 cm**-1
    26:     479.80 cm**-1
    27:     488.26 cm**-1
    28:     524.53 cm**-1
    29:     584.82 cm**-1
    30:     594.76 cm**-1
    31:     602.64 cm**-1
    32:     663.38 cm**-1
    33:     724.79 cm**-1
    34:     737.48 cm**-1
    35:     773.88 cm**-1
    36:     809.04 cm**-1
    37:     820.35 cm**-1
    38:     879.38 cm**-1
    39:     918.61 cm**-1
    40:     923.94 cm**-1
    41:     933.73 cm**-1
    42:     939.04 cm**-1
    43:     945.56 cm**-1
    44:     973.84 cm**-1
    45:     978.41 cm**-1
    46:     981.24 cm**-1
    47:    1003.87 cm**-1
    48:    1032.95 cm**-1
    49:    1037.20 cm**-1
    50:    1041.59 cm**-1
    51:    1060.73 cm**-1
    52:    1069.16 cm**-1
    53:    1084.77 cm**-1
    54:    1086.18 cm**-1
    55:    1119.15 cm**-1
    56:    1133.39 cm**-1
    57:    1145.68 cm**-1
    58:    1168.34 cm**-1
    59:    1180.17 cm**-1
    60:    1206.39 cm**-1
    61:    1230.22 cm**-1
    62:    1243.07 cm**-1
    63:    1255.92 cm**-1
    64:    1262.39 cm**-1
    65:    1270.54 cm**-1
    66:    1281.93 cm**-1
    67:    1313.19 cm**-1
    68:    1319.68 cm**-1
    69:    1326.72 cm**-1
    70:    1338.92 cm**-1
    71:    1359.35 cm**-1
    72:    1378.86 cm**-1
    73:    1384.75 cm**-1
    74:    1407.01 cm**-1
    75:    1408.16 cm**-1
    76:    1427.70 cm**-1
    77:    1437.99 cm**-1
    78:    1446.10 cm**-1
    79:    1450.24 cm**-1
    80:    1450.46 cm**-1
    81:    1470.83 cm**-1
    82:    1474.78 cm**-1
    83:    1505.70 cm**-1
    84:    1511.93 cm**-1
    85:    1513.07 cm**-1
    86:    1518.64 cm**-1
    87:    1521.47 cm**-1
    88:    1521.77 cm**-1
    89:    1527.85 cm**-1
    90:    1528.92 cm**-1
    91:    1536.15 cm**-1
    92:    1538.11 cm**-1
    93:    1538.99 cm**-1
    94:    1562.63 cm**-1
    95:    1759.03 cm**-1
    96:    3083.87 cm**-1
    97:    3086.80 cm**-1
    98:    3091.47 cm**-1
    99:    3099.99 cm**-1
   100:    3104.88 cm**-1
   101:    3109.76 cm**-1
   102:    3116.70 cm**-1
   103:    3120.32 cm**-1
   104:    3121.18 cm**-1
   105:    3155.14 cm**-1
   106:    3159.89 cm**-1
   107:    3169.98 cm**-1
   108:    3170.71 cm**-1
   109:    3172.03 cm**-1
   110:    3172.39 cm**-1
   111:    3175.21 cm**-1
   112:    3176.76 cm**-1
   113:    3179.66 cm**-1
   114:    3187.72 cm**-1
   115:    3193.09 cm**-1
   116:    3194.17 cm**-1
   117:    3203.25 cm**-1
   118:    3215.08 cm**-1
   119:    3292.79 cm**-1

IR SPECTRUM
-----------

 Mode   freq       eps      Int      T**2         TX        TY        TZ
       cm**-1   L/(mol*cm) km/mol    a.u.
----------------------------------------------------------------------------
  6:     59.74   0.000060    0.30  0.000312  ( 0.004424  0.017103  0.000604)
  7:     81.84   0.000144    0.73  0.000548  (-0.011193  0.010601 -0.017606)
  8:     89.43   0.000038    0.19  0.000131  (-0.007028  0.003206 -0.008456)
  9:    143.90   0.000156    0.79  0.000339  (-0.014448 -0.010488 -0.004486)
 10:    157.17   0.000132    0.67  0.000263  (-0.007097  0.005063 -0.013673)
 11:    180.16   0.000076    0.39  0.000132  (-0.006955 -0.006695  0.006253)
 12:    204.76   0.000087    0.44  0.000133  (-0.007819 -0.005072 -0.006776)
 13:    223.86   0.000081    0.41  0.000112  (-0.000061 -0.010593 -0.000402)
 14:    231.25   0.000013    0.07  0.000018  ( 0.000348 -0.002248  0.003563)
 15:    243.20   0.000150    0.76  0.000192  ( 0.001844 -0.003802 -0.013200)
 16:    280.64   0.000174    0.88  0.000193  (-0.006039 -0.004418 -0.011722)
 17:    285.49   0.000285    1.44  0.000312  (-0.002010 -0.005570 -0.016639)
 18:    290.55   0.000094    0.47  0.000101  ( 0.007368 -0.006766 -0.000824)
 19:    298.09   0.000074    0.37  0.000078  (-0.008097  0.001100  0.003301)
 20:    301.75   0.000273    1.38  0.000283  ( 0.014315 -0.000935  0.008772)
 21:    340.38   0.000256    1.30  0.000235  ( 0.007002 -0.000906  0.013605)
 22:    362.95   0.000050    0.25  0.000043  ( 0.004020  0.003254  0.004070)
 23:    394.88   0.000265    1.34  0.000210  (-0.004088  0.012265 -0.006514)
 24:    412.25   0.000178    0.90  0.000135  (-0.007753  0.002141 -0.008388)
 25:    458.63   0.000085    0.43  0.000058  ( 0.005071 -0.002954  0.004808)
 26:    479.80   0.000864    4.37  0.000562  ( 0.007146 -0.003237  0.022372)
 27:    488.26   0.000396    2.00  0.000253  (-0.010703  0.011761 -0.000033)
 28:    524.53   0.000083    0.42  0.000049  ( 0.002473  0.005928 -0.002868)
 29:    584.82   0.000870    4.40  0.000464  (-0.001945  0.020454 -0.006481)
 30:    594.76   0.000894    4.52  0.000469  (-0.014443  0.007681  0.014190)
 31:    602.64   0.001058    5.34  0.000548  (-0.001555  0.020315 -0.011512)
 32:    663.38   0.001227    6.20  0.000577  (-0.015991  0.017555  0.003670)
 33:    724.79   0.000321    1.62  0.000138  (-0.009309 -0.007110  0.000990)
 34:    737.48   0.000021    0.11  0.000009  ( 0.000306 -0.002917 -0.000535)
 35:    773.88   0.000362    1.83  0.000146  (-0.000346 -0.011890 -0.002098)
 36:    809.04   0.001528    7.72  0.000589  (-0.009475  0.021857  0.004687)
 37:    820.35   0.000179    0.90  0.000068  ( 0.000652  0.007811  0.002554)
 38:    879.38   0.002226   11.25  0.000790  ( 0.003111  0.026271  0.009496)
 39:    918.61   0.000025    0.13  0.000008  (-0.002841 -0.000147 -0.000586)
 40:    923.94   0.000837    4.23  0.000283  (-0.004150  0.010546  0.012424)
 41:    933.73   0.003372   17.04  0.001127  ( 0.021676 -0.010735 -0.023279)
 42:    939.04   0.005508   27.83  0.001830  (-0.014229  0.040309  0.001759)
 43:    945.56   0.000460    2.32  0.000152  (-0.010788 -0.003663  0.004688)
 44:    973.84   0.000980    4.95  0.000314  (-0.011505  0.012696  0.004519)
 45:    978.41   0.001468    7.42  0.000468  ( 0.020162 -0.007794  0.001012)
 46:    981.24   0.000541    2.74  0.000172  (-0.011448  0.003393  0.005440)
 47:   1003.87   0.000428    2.16  0.000133  ( 0.001002 -0.005739 -0.009961)
 48:   1032.95   0.000408    2.06  0.000123  ( 0.010521  0.003484  0.000558)
 49:   1037.20   0.000150    0.76  0.000045  (-0.004734  0.002877 -0.003815)
 50:   1041.59   0.001278    6.46  0.000383  (-0.016601 -0.006689 -0.007915)
 51:   1060.73   0.000280    1.42  0.000082  (-0.004121  0.003451  0.007317)
 52:   1069.16   0.000474    2.40  0.000138  ( 0.005284  0.010506 -0.000341)
 53:   1084.77   0.000365    1.85  0.000105  (-0.010229 -0.000637  0.000293)
 54:   1086.18   0.000210    1.06  0.000060  (-0.006971  0.003414  0.000177)
 55:   1119.15   0.002027   10.24  0.000565  ( 0.014088 -0.018606 -0.004521)
 56:   1133.39   0.001128    5.70  0.000311  ( 0.003792 -0.017185  0.000985)
 57:   1145.68   0.000775    3.92  0.000211  (-0.004010  0.009512 -0.010221)
 58:   1168.34   0.002790   14.10  0.000745  ( 0.026523  0.003053 -0.005697)
 59:   1180.17   0.000350    1.77  0.000093  ( 0.006013  0.006866 -0.003042)
 60:   1206.39   0.000853    4.31  0.000221  ( 0.010898  0.008706 -0.005101)
 61:   1230.22   0.000470    2.37  0.000119  (-0.007404 -0.007893  0.001432)
 62:   1243.07   0.001045    5.28  0.000262  ( 0.015012 -0.005512  0.002569)
 63:   1255.92   0.000450    2.27  0.000112  ( 0.009124 -0.004504  0.002866)
 64:   1262.39   0.000609    3.08  0.000150  (-0.012257 -0.000421  0.000172)
 65:   1270.54   0.000208    1.05  0.000051  ( 0.003020  0.005857  0.002748)
 66:   1281.93   0.000354    1.79  0.000086  (-0.003633 -0.006892  0.005041)
 67:   1313.19   0.000834    4.21  0.000198  ( 0.000181  0.005324 -0.013030)
 68:   1319.68   0.000790    3.99  0.000187  (-0.001276  0.011522 -0.007239)
 69:   1326.72   0.000289    1.46  0.000068  ( 0.005394  0.004558 -0.004251)
 70:   1338.92   0.000284    1.43  0.000066  (-0.004966 -0.006436  0.000022)
 71:   1359.35   0.002580   13.04  0.000592  ( 0.018745  0.003001  0.015227)
 72:   1378.86   0.000602    3.04  0.000136  ( 0.000116  0.011093  0.003646)
 73:   1384.75   0.000829    4.19  0.000187  (-0.005448  0.012231 -0.002757)
 74:   1407.01   0.000306    1.55  0.000068  (-0.007294  0.002535  0.002887)
 75:   1408.16   0.000133    0.67  0.000029  (-0.003540  0.001919  0.003630)
 76:   1427.70   0.001762    8.90  0.000385  ( 0.012381  0.007374  0.013321)
 77:   1437.99   0.003126   15.80  0.000678  (-0.000999  0.001991 -0.025949)
 78:   1446.10   0.003581   18.10  0.000773  ( 0.010393 -0.018639  0.017815)
 79:   1450.24   0.000719    3.63  0.000155  ( 0.008627 -0.007229  0.005289)
 80:   1450.46   0.002059   10.41  0.000443  ( 0.016387  0.011127 -0.007116)
 81:   1470.83   0.002456   12.41  0.000521  (-0.001126 -0.005941 -0.022013)
 82:   1474.78   0.000593    3.00  0.000126  (-0.010825 -0.001087 -0.002678)
 83:   1505.70   0.001403    7.09  0.000291  ( 0.005015  0.014865  0.006683)
 84:   1511.93   0.000613    3.10  0.000127  (-0.003359 -0.009224 -0.005499)
 85:   1513.07   0.000045    0.23  0.000009  ( 0.001256  0.002708 -0.000579)
 86:   1518.64   0.002234   11.29  0.000459  (-0.001229  0.021351  0.001291)
 87:   1521.47   0.000348    1.76  0.000071  ( 0.005060  0.006462  0.002025)
 88:   1521.77   0.002469   12.48  0.000506  ( 0.013401  0.005787 -0.017125)
 89:   1527.85   0.001590    8.04  0.000325  (-0.007437  0.015990 -0.003713)
 90:   1528.92   0.002346   11.86  0.000479  ( 0.006375  0.016010 -0.013487)
 91:   1536.15   0.001424    7.19  0.000289  (-0.016746  0.001136  0.002732)
 92:   1538.11   0.000812    4.11  0.000165  (-0.007841  0.009976 -0.001951)
 93:   1538.99   0.003632   18.35  0.000736  ( 0.016945 -0.010765 -0.018260)
 94:   1562.63   0.001952    9.86  0.000390  ( 0.017592 -0.007339 -0.005145)
 95:   1759.03   0.005242   26.49  0.000930  (-0.003131 -0.015584  0.026025)
 96:   3083.87   0.004853   24.52  0.000491  (-0.015918 -0.006564 -0.013949)
 97:   3086.80   0.006749   34.11  0.000682  (-0.006713 -0.000712  0.025233)
 98:   3091.47   0.003760   19.00  0.000380  (-0.016087 -0.009664  0.005234)
 99:   3099.99   0.007359   37.19  0.000741  ( 0.016984  0.021141 -0.002317)
100:   3104.88   0.003748   18.94  0.000377  (-0.002588  0.016121 -0.010495)
101:   3109.76   0.002954   14.93  0.000296  ( 0.013779 -0.005167 -0.008938)
102:   3116.70   0.005547   28.03  0.000555  (-0.012655 -0.019281 -0.004848)
103:   3120.32   0.012011   60.70  0.001201  ( 0.021773 -0.026714 -0.003673)
104:   3121.18   0.001062    5.37  0.000106  ( 0.000816 -0.002679 -0.009915)
105:   3155.14   0.001908    9.64  0.000189  (-0.008907  0.010166 -0.002447)
106:   3159.89   0.003190   16.12  0.000315  (-0.001371  0.006340  0.016523)
107:   3169.98   0.005129   25.92  0.000505  ( 0.015489  0.013214  0.009507)
108:   3170.71   0.001230    6.22  0.000121  (-0.005018  0.009399  0.002745)
109:   3172.03   0.002136   10.79  0.000210  (-0.005704 -0.009586  0.009257)
110:   3172.39   0.006820   34.47  0.000671  (-0.018216  0.005600 -0.017543)
111:   3175.21   0.006718   33.95  0.000660  (-0.017889  0.018434 -0.000693)
112:   3176.76   0.001883    9.51  0.000185  (-0.004442 -0.012168  0.004141)
113:   3179.66   0.002831   14.31  0.000278  ( 0.010835  0.005937 -0.011189)
114:   3187.72   0.004123   20.83  0.000404  (-0.018113 -0.008389  0.002267)
115:   3193.09   0.005119   25.87  0.000500  (-0.001591  0.006568  0.021321)
116:   3194.17   0.002396   12.11  0.000234  ( 0.014812  0.000145 -0.003833)
117:   3203.25   0.002043   10.32  0.000199  (-0.001653 -0.005492  0.012889)
118:   3215.08   0.001953    9.87  0.000190  (-0.003189 -0.007134 -0.011337)
119:   3292.79   0.001760    8.89  0.000167  ( 0.011257  0.005941  0.002188)

--------------------------
THERMOCHEMISTRY AT 298.15K
--------------------------

Temperature         ...   298.15 K
Pressure            ...     1.00 atm
Total Mass          ...   220.36 AMU
Quasi RRHO          ...     True
Cut-Off Frequency   ...     1.00 cm^-1

Throughout the following assumptions are being made:
  (1) The electronic state is orbitally nondegenerate
  (2) There are no thermally accessible electronically excited states
  (3) Hindered rotations indicated by low frequency modes are not
      treated as such but are treated as vibrations and this may
      cause some error
  (4) All equations used are the standard statistical mechanics
      equations for an ideal gas
  (5) All vibrations are strictly harmonic

freq.      59.74  E(vib)   ...       0.51
freq.      81.84  E(vib)   ...       0.48
freq.      89.43  E(vib)   ...       0.47
freq.     143.90  E(vib)   ...       0.41
freq.     157.17  E(vib)   ...       0.40
freq.     180.16  E(vib)   ...       0.37
freq.     204.76  E(vib)   ...       0.35
freq.     223.86  E(vib)   ...       0.33
freq.     231.25  E(vib)   ...       0.32
freq.     243.20  E(vib)   ...       0.31
freq.     280.64  E(vib)   ...       0.28
freq.     285.49  E(vib)   ...       0.28
freq.     290.55  E(vib)   ...       0.27
freq.     298.09  E(vib)   ...       0.27
freq.     301.75  E(vib)   ...       0.26
freq.     340.38  E(vib)   ...       0.23
freq.     362.95  E(vib)   ...       0.22
freq.     394.88  E(vib)   ...       0.20
freq.     412.25  E(vib)   ...       0.19
freq.     458.63  E(vib)   ...       0.16
freq.     479.80  E(vib)   ...       0.15
freq.     488.26  E(vib)   ...       0.15
freq.     524.53  E(vib)   ...       0.13
freq.     584.82  E(vib)   ...       0.11
freq.     594.76  E(vib)   ...       0.10
freq.     602.64  E(vib)   ...       0.10
freq.     663.38  E(vib)   ...       0.08
freq.     724.79  E(vib)   ...       0.06
freq.     737.48  E(vib)   ...       0.06
freq.     773.88  E(vib)   ...       0.05
freq.     809.04  E(vib)   ...       0.05
freq.     820.35  E(vib)   ...       0.05
freq.     879.38  E(vib)   ...       0.04
freq.     918.61  E(vib)   ...       0.03
freq.     923.94  E(vib)   ...       0.03
freq.     933.73  E(vib)   ...       0.03
freq.     939.04  E(vib)   ...       0.03
freq.     945.56  E(vib)   ...       0.03
freq.     973.84  E(vib)   ...       0.03
freq.     978.41  E(vib)   ...       0.03
freq.     981.24  E(vib)   ...       0.02
freq.    1003.87  E(vib)   ...       0.02
freq.    1032.95  E(vib)   ...       0.02
freq.    1037.20  E(vib)   ...       0.02
freq.    1041.59  E(vib)   ...       0.02
freq.    1060.73  E(vib)   ...       0.02
freq.    1069.16  E(vib)   ...       0.02
freq.    1084.77  E(vib)   ...       0.02
freq.    1086.18  E(vib)   ...       0.02
freq.    1119.15  E(vib)   ...       0.01
freq.    1133.39  E(vib)   ...       0.01
freq.    1145.68  E(vib)   ...       0.01
freq.    1168.34  E(vib)   ...       0.01
freq.    1180.17  E(vib)   ...       0.01
freq.    1206.39  E(vib)   ...       0.01
freq.    1230.22  E(vib)   ...       0.01
freq.    1243.07  E(vib)   ...       0.01
freq.    1255.92  E(vib)   ...       0.01
freq.    1262.39  E(vib)   ...       0.01
freq.    1270.54  E(vib)   ...       0.01
freq.    1281.93  E(vib)   ...       0.01
freq.    1313.19  E(vib)   ...       0.01
freq.    1319.68  E(vib)   ...       0.01
freq.    1326.72  E(vib)   ...       0.01
freq.    1338.92  E(vib)   ...       0.01
freq.    1359.35  E(vib)   ...       0.01
freq.    1378.86  E(vib)   ...       0.01
freq.    1384.75  E(vib)   ...       0.00
freq.    1407.01  E(vib)   ...       0.00
freq.    1408.16  E(vib)   ...       0.00
freq.    1427.70  E(vib)   ...       0.00
freq.    1437.99  E(vib)   ...       0.00
freq.    1446.10  E(vib)   ...       0.00
freq.    1450.24  E(vib)   ...       0.00
freq.    1450.46  E(vib)   ...       0.00
freq.    1470.83  E(vib)   ...       0.00
freq.    1474.78  E(vib)   ...       0.00
freq.    1505.70  E(vib)   ...       0.00
freq.    1511.93  E(vib)   ...       0.00
freq.    1513.07  E(vib)   ...       0.00
freq.    1518.64  E(vib)   ...       0.00
freq.    1521.47  E(vib)   ...       0.00
freq.    1521.77  E(vib)   ...       0.00
freq.    1527.85  E(vib)   ...       0.00
freq.    1528.92  E(vib)   ...       0.00
freq.    1536.15  E(vib)   ...       0.00
freq.    1538.11  E(vib)   ...       0.00
freq.    1538.99  E(vib)   ...       0.00
freq.    1562.63  E(vib)   ...       0.00
freq.    1759.03  E(vib)   ...       0.00
freq.    3083.87  E(vib)   ...       0.00
freq.    3086.80  E(vib)   ...       0.00
freq.    3091.47  E(vib)   ...       0.00
freq.    3099.99  E(vib)   ...       0.00
freq.    3104.88  E(vib)   ...       0.00
freq.    3109.76  E(vib)   ...       0.00
freq.    3116.70  E(vib)   ...       0.00
freq.    3120.32  E(vib)   ...       0.00
freq.    3121.18  E(vib)   ...       0.00
freq.    3155.14  E(vib)   ...       0.00
freq.    3159.89  E(vib)   ...       0.00
freq.    3169.98  E(vib)   ...       0.00
freq.    3170.71  E(vib)   ...       0.00
freq.    3172.03  E(vib)   ...       0.00
freq.    3172.39  E(vib)   ...       0.00
freq.    3175.21  E(vib)   ...       0.00
freq.    3176.76  E(vib)   ...       0.00
freq.    3179.66  E(vib)   ...       0.00
freq.    3187.72  E(vib)   ...       0.00
freq.    3193.09  E(vib)   ...       0.00
freq.    3194.17  E(vib)   ...       0.00
freq.    3203.25  E(vib)   ...       0.00
freq.    3215.08  E(vib)   ...       0.00
freq.    3292.79  E(vib)   ...       0.00

------------
INNER ENERGY
------------

The inner energy is: U= E(el) + E(ZPE) + E(vib) + E(rot) + E(trans)
    E(el)   - is the total energy from the electronic structure calculation
              = E(kin-el) + E(nuc-el) + E(el-el) + E(nuc-nuc)
    E(ZPE)  - the the zero temperature vibrational energy from the frequency calculation
    E(vib)  - the the finite temperature correction to E(ZPE) due to population
              of excited vibrational states
    E(rot)  - is the rotational thermal energy
    E(trans)- is the translational thermal energy

Summary of contributions to the inner energy U:
Electronic energy                ...   -115.94220042 Eh
Zero point energy                ...      0.37011989 Eh     232.25 kcal/mol
Thermal vibrational correction   ...      0.01281796 Eh       8.04 kcal/mol
Thermal rotational correction    ...      0.00141627 Eh       0.89 kcal/mol
Thermal translational correction ...      0.00141627 Eh       0.89 kcal/mol
-----------------------------------------------------------------------
Total thermal energy                   -115.55643003 Eh

Summary of corrections to the electronic energy:
(perhaps to be used in another calculation)
Total thermal correction                  0.01565051 Eh       9.82 kcal/mol
Non-thermal (ZPE) correction              0.37011989 Eh     232.25 kcal/mol

Rotational constants in cm-1:     0.026075     0.014744     0.011129

                             ****ORCA TERMINATED NORMALLY****
TOTAL RUN TIME: 0 days 0 hours 36 minutes 54 seconds 812 msec
