                         Program Version 6.0.1  -  RELEASE   -
|  1> ! wB97X-3c OPT FREQ TightSCF
|  2> %pal
|  3>   nprocs 40
|  4> end
|  5> * xyz 0 1
|  6> C      4.151762     0.295448     1.066812
|  7> C      3.898963     1.028030    -0.096341
|  8> C      2.926799     0.592092    -1.002266
|  9> C      2.202494    -0.585011    -0.749464
| 10> C      2.458685    -1.313152     0.423701
| 11> C      3.431699    -0.873846     1.326899
| 12> C      1.139966    -1.053088    -1.705974
| 13> O     -0.150114    -0.940777    -1.108954
| 14> C     -0.791376     0.284053    -0.883592
| 15> O     -0.252338     1.360000    -1.264056
| 16> C     -2.103183     0.312444    -0.200582
| 17> C     -2.769037     1.531771     0.027270
| 18> C     -4.008101     1.550580     0.675346
| 19> C     -4.594231     0.356858     1.102143
| 20> C     -3.942407    -0.858602     0.881897
| 21> C     -2.703190    -0.883539     0.234268
| 22> H      4.903996     0.634715     1.767163
| 23> H      4.455203     1.934957    -0.295242
| 24> H      2.738450     1.172813    -1.896673
| 25> H      1.903487    -2.218119     0.637991
| 26> H      3.626203    -1.438952     2.229278
| 27> H      1.167173    -0.483589    -2.660929
| 28> H      1.324374    -2.119681    -1.953937
| 29> H     -2.333800     2.469659    -0.294396
| 30> H     -4.514072     2.491944     0.846838
| 31> H     -5.553239     0.373707     1.603648
| 32> H     -4.397500    -1.782996     1.213513
| 33> H     -2.216663    -1.837717     0.075638
| 34> *
| 35>
| 36>                          ****END OF INPUT****
 Total Charge           Charge          ....    0
 Multiplicity           Mult            ....    1
 Number of Electrons    NEL             ....   80
Dispersion correction           -0.038879597
FINAL SINGLE POINT ENERGY      -119.064800064947
Dispersion correction             ... done (  0.1 sec)
Dispersion correction           -0.039647336
FINAL SINGLE POINT ENERGY      -119.083360153869
Dispersion correction             ... done (  0.1 sec)
Dispersion correction           -0.039711132
FINAL SINGLE POINT ENERGY      -119.084984220349
Dispersion correction             ... done (  0.1 sec)
FINAL SINGLE POINT ENERGY      -119.084826677380
FINAL SINGLE POINT ENERGY      -119.085334971373
FINAL SINGLE POINT ENERGY      -119.085371762484
FINAL SINGLE POINT ENERGY      -119.085407983544
FINAL SINGLE POINT ENERGY      -119.085437371027
FINAL SINGLE POINT ENERGY      -119.085460957124
FINAL SINGLE POINT ENERGY      -119.085477905575
Dispersion correction             ... done (  0.1 sec)
Dispersion correction           -0.039528330
FINAL SINGLE POINT ENERGY      -119.085483857614
Dispersion correction             ... done (  0.1 sec)
Dispersion correction           -0.039528282
FINAL SINGLE POINT ENERGY      -119.085485673486
Dispersion correction             ... done (  0.1 sec)
                    ***********************HURRAY********************

CARTESIAN COORDINATES (ANGSTROEM)
---------------------------------
  C      4.213055    0.158903    1.074390
  C      3.715958    1.071875    0.160855
  C      2.697596    0.707378   -0.702323
  C      2.170515   -0.574858   -0.661224
  C      2.674198   -1.484847    0.257534
  C      3.689650   -1.122129    1.122981
  C      1.062161   -0.978583   -1.583889
  O     -0.218314   -0.873801   -0.946620
  C     -0.822646    0.314601   -0.988350
  O     -0.368631    1.269808   -1.560597
  C     -2.118638    0.323946   -0.262680
  C     -2.862340    1.494628   -0.277368
  C     -4.073842    1.551815    0.382972
  C     -4.544639    0.439789    1.061424
  C     -3.802568   -0.728918    1.078835
  C     -2.590178   -0.789115    0.417682
  H      5.009430    0.444356    1.747913
  H      4.121476    2.073357    0.120742
  H      2.295744    1.423179   -1.405640
  H      2.267941   -2.487538    0.293577
  H      4.076510   -1.839819    1.833121
  H      1.058687   -0.373585   -2.486472
  H      1.145232   -2.027867   -1.853143
  H     -2.475388    2.350239   -0.811216
  H     -4.652826    2.464545    0.370145
  H     -5.493024    0.484667    1.579128
  H     -4.169708   -1.595960    1.609834
  H     -2.005408   -1.696063    0.428385

 Multiplicity           Mult            ....    1
 Number of Electrons    NEL             ....   80
 Basis Dimension        Dim             ....  268

ORBITAL ENERGIES
----------------

  NO   OCC          E(Eh)            E(eV)
   0   2.0000      -1.245689       -33.8969
   1   2.0000      -1.147412       -31.2227
   2   2.0000      -1.018981       -27.7279
   3   2.0000      -1.011651       -27.5284
   4   2.0000      -0.934222       -25.4215
   5   2.0000      -0.907957       -24.7068
   6   2.0000      -0.899154       -24.4672
   7   2.0000      -0.892186       -24.2776
   8   2.0000      -0.847206       -23.0536
   9   2.0000      -0.770485       -20.9660
  10   2.0000      -0.748088       -20.3565
  11   2.0000      -0.743381       -20.2284
  12   2.0000      -0.727640       -19.8001
  13   2.0000      -0.691156       -18.8073
  14   2.0000      -0.671170       -18.2635
  15   2.0000      -0.646474       -17.5914
  16   2.0000      -0.617856       -16.8127
  17   2.0000      -0.610405       -16.6100
  18   2.0000      -0.597749       -16.2656
  19   2.0000      -0.581183       -15.8148
  20   2.0000      -0.573506       -15.6059
  21   2.0000      -0.568222       -15.4621
  22   2.0000      -0.563617       -15.3368
  23   2.0000      -0.546961       -14.8836
  24   2.0000      -0.539944       -14.6926
  25   2.0000      -0.532655       -14.4943
  26   2.0000      -0.526375       -14.3234
  27   2.0000      -0.495159       -13.4740
  28   2.0000      -0.491023       -13.3614
  29   2.0000      -0.477716       -12.9993
  30   2.0000      -0.472520       -12.8579
  31   2.0000      -0.465813       -12.6754
  32   2.0000      -0.458534       -12.4773
  33   2.0000      -0.447757       -12.1841
  34   2.0000      -0.417926       -11.3723
  35   2.0000      -0.396508       -10.7895
  36   2.0000      -0.362119        -9.8538
  37   2.0000      -0.360554        -9.8112
  38   2.0000      -0.354195        -9.6381
  39   2.0000      -0.351596        -9.5674
  40   0.0000       0.024189         0.6582
  41   0.0000       0.056506         1.5376
  42   0.0000       0.061510         1.6738
  43   0.0000       0.065305         1.7771
  44   0.0000       0.082356         2.2410

MULLIKEN ATOMIC CHARGES
-----------------------
   0 C :   -0.008773
   1 C :   -0.004006
   2 C :    0.018686
   3 C :   -0.077323
   4 C :    0.013829
   5 C :   -0.005953
   6 C :    0.110323
   7 O :   -0.288488
   8 C :    0.275226
   9 O :   -0.341634
  10 C :   -0.092567
  11 C :    0.035925
  12 C :   -0.004482
  13 C :   -0.001101
  14 C :   -0.005989
  15 C :    0.040099
  16 H :    0.018760
  17 H :    0.018393
  18 H :    0.033214
  19 H :    0.014464
  20 H :    0.017571
  21 H :    0.056711
  22 H :    0.047893
  23 H :    0.033950
  24 H :    0.022630
  25 H :    0.020871
  26 H :    0.021355
  27 H :    0.030415
Sum of atomic charges:    0.0000000

LOEWDIN ATOMIC CHARGES
----------------------
   0 C :   -0.041717
   1 C :   -0.041667
   2 C :   -0.022131
   3 C :   -0.047373
   4 C :   -0.031707
   5 C :   -0.044822
   6 C :   -0.016715
   7 O :   -0.006137
   8 C :   -0.044344
   9 O :   -0.140052
  10 C :   -0.044343
  11 C :   -0.003581
  12 C :   -0.042541
  13 C :   -0.031028
  14 C :   -0.043931
  15 C :   -0.012832
  16 H :    0.047263
  17 H :    0.048054
  18 H :    0.052502
  19 H :    0.047191
  20 H :    0.046910
  21 H :    0.056297
  22 H :    0.059862
  23 H :    0.057807
  24 H :    0.049020
  25 H :    0.049676
  26 H :    0.048360
  27 H :    0.051981

  Mayer bond orders larger than 0.100000
B(  0-C ,  1-C ) :   1.4475 B(  0-C ,  5-C ) :   1.4437 B(  0-C , 16-H ) :   0.9928
B(  1-C ,  2-C ) :   1.4491 B(  1-C , 17-H ) :   0.9914 B(  2-C ,  3-C ) :   1.4589
B(  2-C , 18-H ) :   0.9814 B(  3-C ,  4-C ) :   1.4391 B(  3-C ,  6-C ) :   1.0234
B(  4-C ,  5-C ) :   1.4576 B(  4-C , 19-H ) :   0.9869 B(  5-C , 20-H ) :   0.9909
B(  6-C ,  7-O ) :   0.8728 B(  6-C , 21-H ) :   0.9945 B(  6-C , 22-H ) :   1.0070
B(  7-O ,  8-C ) :   1.1425 B(  8-C ,  9-O ) :   1.8904 B(  8-C , 10-C ) :   1.0949
B( 10-C , 11-C ) :   1.4330 B( 10-C , 15-C ) :   1.4277 B( 11-C , 12-C ) :   1.4518
B( 11-C , 23-H ) :   0.9807 B( 12-C , 13-C ) :   1.4393 B( 12-C , 24-H ) :   0.9899
B( 13-C , 14-C ) :   1.4439 B( 13-C , 25-H ) :   0.9936 B( 14-C , 15-C ) :   1.4497
B( 14-C , 26-H ) :   0.9900 B( 15-C , 27-H ) :   0.9809

Dispersion correction           -0.039530042
FINAL SINGLE POINT ENERGY      -119.085485888376

DIPOLE MOMENT
-------------

Method             : SCF
Type of density    : Electron Density
Multiplicity       :   1
Irrep              :   0
Energy             :  -119.0459558465028778 Eh
Relativity type    :
Basis              : AO
                                X                 Y                 Z
Electronic contribution:     -2.154748709       0.762860898      -0.313549598
Nuclear contribution   :      2.004181150      -1.320239893       0.738232178
                        -----------------------------------------
Total Dipole Moment    :     -0.150567558      -0.557378995       0.424682580
                        -----------------------------------------
Magnitude (a.u.)       :      0.716726746
Magnitude (Debye)      :      1.821774608

VIBRATIONAL FREQUENCIES
-----------------------

Scaling factor for frequencies =  1.000000000  (already applied!)

     0:       0.00 cm**-1
     1:       0.00 cm**-1
     2:       0.00 cm**-1
     3:       0.00 cm**-1
     4:       0.00 cm**-1
     5:       0.00 cm**-1
     6:      17.29 cm**-1
     7:      29.36 cm**-1
     8:      38.04 cm**-1
     9:      75.97 cm**-1
    10:     138.90 cm**-1
    11:     154.18 cm**-1
    12:     191.75 cm**-1
    13:     258.90 cm**-1
    14:     313.48 cm**-1
    15:     386.70 cm**-1
    16:     401.97 cm**-1
    17:     419.91 cm**-1
    18:     420.28 cm**-1
    19:     458.71 cm**-1
    20:     482.60 cm**-1
    21:     528.54 cm**-1
    22:     627.36 cm**-1
    23:     642.39 cm**-1
    24:     646.11 cm**-1
    25:     704.63 cm**-1
    26:     715.65 cm**-1
    27:     724.88 cm**-1
    28:     739.27 cm**-1
    29:     788.83 cm**-1
    30:     841.09 cm**-1
    31:     847.47 cm**-1
    32:     863.73 cm**-1
    33:     880.35 cm**-1
    34:     885.38 cm**-1
    35:     963.93 cm**-1
    36:     984.74 cm**-1
    37:    1016.56 cm**-1
    38:    1017.54 cm**-1
    39:    1026.52 cm**-1
    40:    1028.37 cm**-1
    41:    1034.52 cm**-1
    42:    1040.04 cm**-1
    43:    1043.53 cm**-1
    44:    1044.03 cm**-1
    45:    1078.44 cm**-1
    46:    1081.36 cm**-1
    47:    1128.03 cm**-1
    48:    1136.63 cm**-1
    49:    1176.89 cm**-1
    50:    1195.80 cm**-1
    51:    1196.73 cm**-1
    52:    1220.51 cm**-1
    53:    1226.65 cm**-1
    54:    1274.52 cm**-1
    55:    1313.55 cm**-1
    56:    1345.45 cm**-1
    57:    1360.09 cm**-1
    58:    1364.97 cm**-1
    59:    1374.44 cm**-1
    60:    1392.13 cm**-1
    61:    1446.44 cm**-1
    62:    1522.63 cm**-1
    63:    1523.62 cm**-1
    64:    1528.20 cm**-1
    65:    1570.60 cm**-1
    66:    1575.65 cm**-1
    67:    1699.33 cm**-1
    68:    1701.06 cm**-1
    69:    1719.95 cm**-1
    70:    1723.26 cm**-1
    71:    1854.47 cm**-1
    72:    3155.90 cm**-1
    73:    3225.80 cm**-1
    74:    3242.51 cm**-1
    75:    3251.34 cm**-1
    76:    3251.49 cm**-1
    77:    3261.94 cm**-1
    78:    3263.71 cm**-1
    79:    3271.17 cm**-1
    80:    3273.50 cm**-1
    81:    3278.00 cm**-1
    82:    3285.31 cm**-1
    83:    3292.81 cm**-1

IR SPECTRUM
-----------

 Mode   freq       eps      Int      T**2         TX        TY        TZ
       cm**-1   L/(mol*cm) km/mol    a.u.
----------------------------------------------------------------------------
  6:     17.29   0.000033    0.17  0.000594  ( 0.010882  0.002592  0.021653)
  7:     29.36   0.000097    0.49  0.001034  (-0.014170 -0.005025 -0.028432)
  8:     38.04   0.000058    0.29  0.000477  (-0.000500  0.012440  0.017933)
  9:     75.97   0.000496    2.50  0.002035  ( 0.029405 -0.003877  0.033995)
 10:    138.90   0.000100    0.51  0.000225  (-0.008069 -0.008510  0.009338)
 11:    154.18   0.000151    0.77  0.000307  ( 0.001511  0.017357 -0.001727)
 12:    191.75   0.000046    0.23  0.000075  (-0.007610 -0.003760 -0.001704)
 13:    258.90   0.000964    4.87  0.001162  ( 0.033245 -0.004700  0.005855)
 14:    313.48   0.000633    3.20  0.000630  (-0.016628  0.014834  0.011568)
 15:    386.70   0.001498    7.57  0.001209  ( 0.028344 -0.019955  0.002756)
 16:    401.97   0.000825    4.17  0.000640  ( 0.014302 -0.020873 -0.000124)
 17:    419.91   0.000001    0.01  0.000001  (-0.000974  0.000006 -0.000070)
 18:    420.28   0.000005    0.02  0.000004  (-0.000756 -0.001747  0.000107)
 19:    458.71   0.000169    0.86  0.000115  (-0.002853 -0.004050 -0.009518)
 20:    482.60   0.000052    0.27  0.000034  (-0.001061 -0.005728  0.000065)
 21:    528.54   0.003503   17.70  0.002068  (-0.043237  0.006136  0.012687)
 22:    627.36   0.003425   17.31  0.001704  ( 0.015818 -0.015759 -0.034718)
 23:    642.39   0.000152    0.77  0.000074  ( 0.006613 -0.004888 -0.002493)
 24:    646.11   0.000082    0.41  0.000039  (-0.005737  0.002513  0.000507)
 25:    704.63   0.000746    3.77  0.000330  ( 0.017803  0.001668 -0.003261)
 26:    715.65   0.003031   15.32  0.001322  ( 0.014652  0.011835  0.031096)
 27:    724.88   0.010309   52.10  0.004438  ( 0.056862 -0.014087 -0.031720)
 28:    739.27   0.023205  117.27  0.009795  (-0.033548 -0.032178 -0.087375)
 29:    788.83   0.006253   31.60  0.002474  (-0.039783  0.010316  0.028010)
 30:    841.09   0.000300    1.52  0.000111  ( 0.008119  0.005471  0.003931)
 31:    847.47   0.000825    4.17  0.000304  (-0.009371 -0.009842  0.010915)
 32:    863.73   0.001719    8.69  0.000621  ( 0.020357  0.007582  0.012219)
 33:    880.35   0.000048    0.24  0.000017  (-0.000967 -0.002932  0.002761)
 34:    885.38   0.000014    0.07  0.000005  (-0.001134  0.001014 -0.001640)
 35:    963.93   0.001937    9.79  0.000627  (-0.024798 -0.000934  0.003381)
 36:    984.74   0.000240    1.21  0.000076  (-0.004037 -0.003018 -0.007118)
 37:   1016.56   0.000588    2.97  0.000181  (-0.012874 -0.000843  0.003749)
 38:   1017.54   0.001081    5.46  0.000332  (-0.017367  0.005080  0.002044)
 39:   1026.52   0.000040    0.20  0.000012  (-0.003425 -0.000569 -0.000094)
 40:   1028.37   0.003971   20.07  0.001205  ( 0.031009  0.009919 -0.012038)
 41:   1034.52   0.000034    0.17  0.000010  (-0.003119  0.000063  0.000711)
 42:   1040.04   0.000006    0.03  0.000002  ( 0.000406  0.000496  0.001119)
 43:   1043.53   0.000438    2.22  0.000131  ( 0.010201 -0.005197  0.000243)
 44:   1044.03   0.000096    0.48  0.000029  (-0.004475  0.001857  0.002257)
 45:   1078.44   0.005982   30.23  0.001731  ( 0.040063 -0.006370 -0.009234)
 46:   1081.36   0.000597    3.02  0.000172  (-0.004961 -0.001986 -0.011991)
 47:   1128.03   0.004969   25.11  0.001375  ( 0.023623 -0.028485  0.002295)
 48:   1136.63   0.001355    6.85  0.000372  ( 0.005258 -0.017949  0.004720)
 49:   1176.89   0.032047  161.95  0.008498  ( 0.083584 -0.037632 -0.009760)
 50:   1195.80   0.000286    1.45  0.000075  ( 0.008322 -0.001881 -0.001405)
 51:   1196.73   0.000241    1.22  0.000063  ( 0.003680  0.006388 -0.002907)
 52:   1220.51   0.007514   37.97  0.001921  ( 0.041373 -0.011450 -0.008850)
 53:   1226.65   0.000017    0.08  0.000004  ( 0.001866  0.000227  0.000862)
 54:   1274.52   0.002339   11.82  0.000573  ( 0.017800  0.009686  0.012724)
 55:   1313.55   0.000465    2.35  0.000111  (-0.007215 -0.003106  0.006988)
 56:   1345.45   0.078238  395.38  0.018147  ( 0.123302 -0.051808 -0.016098)
 57:   1360.09   0.019726   99.69  0.004526  (-0.065209  0.008506  0.014192)
 58:   1364.97   0.021243  107.36  0.004857  ( 0.063706 -0.027094 -0.008012)
 59:   1374.44   0.004536   22.92  0.001030  ( 0.025599 -0.019325 -0.001100)
 60:   1392.13   0.003769   19.05  0.000845  ( 0.027552 -0.008573 -0.003510)
 61:   1446.44   0.010726   54.20  0.002314  ( 0.033288 -0.020763 -0.027836)
 62:   1522.63   0.001041    5.26  0.000213  (-0.003342  0.010412 -0.009681)
 63:   1523.62   0.006969   35.22  0.001427  ( 0.027870 -0.019053 -0.016963)
 64:   1528.20   0.001712    8.65  0.000350  ( 0.010030  0.009646 -0.012485)
 65:   1570.60   0.000931    4.71  0.000185  (-0.007550  0.011309 -0.000290)
 66:   1575.65   0.000930    4.70  0.000184  (-0.012596 -0.000999 -0.004956)
 67:   1699.33   0.001153    5.82  0.000212  ( 0.010341  0.007482 -0.006982)
 68:   1701.06   0.000100    0.51  0.000018  (-0.001139 -0.003919  0.001329)
 69:   1719.95   0.002913   14.72  0.000528  (-0.020791  0.004504  0.008713)
 70:   1723.26   0.000034    0.17  0.000006  ( 0.001464 -0.000570 -0.001901)
 71:   1854.47   0.051698  261.26  0.008700  (-0.038717 -0.069144  0.049191)
 72:   3155.90   0.005114   25.84  0.000506  ( 0.006918 -0.013266 -0.016787)
 73:   3225.80   0.000217    1.10  0.000021  ( 0.000089 -0.004335  0.001481)
 74:   3242.51   0.000581    2.94  0.000056  ( 0.004318  0.005701  0.002190)
 75:   3251.34   0.000187    0.94  0.000018  ( 0.003062  0.001613  0.002434)
 76:   3251.49   0.000035    0.18  0.000003  ( 0.001122 -0.000158 -0.001438)
 77:   3261.94   0.001720    8.69  0.000165  (-0.003857 -0.012233 -0.000167)
 78:   3263.71   0.001225    6.19  0.000117  ( 0.000447 -0.010284  0.003347)
 79:   3271.17   0.001593    8.05  0.000152  ( 0.004658 -0.007233  0.008832)
 80:   3273.50   0.001289    6.51  0.000123  (-0.009862 -0.000068  0.005056)
 81:   3278.00   0.001318    6.66  0.000126  (-0.009839 -0.003685 -0.003889)
 82:   3285.31   0.000835    4.22  0.000079  (-0.007848  0.003620  0.002153)
 83:   3292.81   0.000431    2.18  0.000041  (-0.004248 -0.003596  0.003147)

--------------------------
THERMOCHEMISTRY AT 298.15K
--------------------------

Temperature         ...   298.15 K
Pressure            ...     1.00 atm
Total Mass          ...   212.25 AMU
Quasi RRHO          ...     True
Cut-Off Frequency   ...     1.00 cm^-1

Throughout the following assumptions are being made:
  (1) The electronic state is orbitally nondegenerate
  (2) There are no thermally accessible electronically excited states
  (3) Hindered rotations indicated by low frequency modes are not
      treated as such but are treated as vibrations and this may
      cause some error
  (4) All equations used are the standard statistical mechanics
      equations for an ideal gas
  (5) All vibrations are strictly harmonic

freq.      17.29  E(vib)   ...       0.57
freq.      29.36  E(vib)   ...       0.55
freq.      38.04  E(vib)   ...       0.54
freq.      75.97  E(vib)   ...       0.49
freq.     138.90  E(vib)   ...       0.42
freq.     154.18  E(vib)   ...       0.40
freq.     191.75  E(vib)   ...       0.36
freq.     258.90  E(vib)   ...       0.30
freq.     313.48  E(vib)   ...       0.25
freq.     386.70  E(vib)   ...       0.20
freq.     401.97  E(vib)   ...       0.19
freq.     419.91  E(vib)   ...       0.18
freq.     420.28  E(vib)   ...       0.18
freq.     458.71  E(vib)   ...       0.16
freq.     482.60  E(vib)   ...       0.15
freq.     528.54  E(vib)   ...       0.13
freq.     627.36  E(vib)   ...       0.09
freq.     642.39  E(vib)   ...       0.09
freq.     646.11  E(vib)   ...       0.09
freq.     704.63  E(vib)   ...       0.07
freq.     715.65  E(vib)   ...       0.07
freq.     724.88  E(vib)   ...       0.06
freq.     739.27  E(vib)   ...       0.06
freq.     788.83  E(vib)   ...       0.05
freq.     841.09  E(vib)   ...       0.04
freq.     847.47  E(vib)   ...       0.04
freq.     863.73  E(vib)   ...       0.04
freq.     880.35  E(vib)   ...       0.04
freq.     885.38  E(vib)   ...       0.04
freq.     963.93  E(vib)   ...       0.03
freq.     984.74  E(vib)   ...       0.02
freq.    1016.56  E(vib)   ...       0.02
freq.    1017.54  E(vib)   ...       0.02
freq.    1026.52  E(vib)   ...       0.02
freq.    1028.37  E(vib)   ...       0.02
freq.    1034.52  E(vib)   ...       0.02
freq.    1040.04  E(vib)   ...       0.02
freq.    1043.53  E(vib)   ...       0.02
freq.    1044.03  E(vib)   ...       0.02
freq.    1078.44  E(vib)   ...       0.02
freq.    1081.36  E(vib)   ...       0.02
freq.    1128.03  E(vib)   ...       0.01
freq.    1136.63  E(vib)   ...       0.01
freq.    1176.89  E(vib)   ...       0.01
freq.    1195.80  E(vib)   ...       0.01
freq.    1196.73  E(vib)   ...       0.01
freq.    1220.51  E(vib)   ...       0.01
freq.    1226.65  E(vib)   ...       0.01
freq.    1274.52  E(vib)   ...       0.01
freq.    1313.55  E(vib)   ...       0.01
freq.    1345.45  E(vib)   ...       0.01
freq.    1360.09  E(vib)   ...       0.01
freq.    1364.97  E(vib)   ...       0.01
freq.    1374.44  E(vib)   ...       0.01
freq.    1392.13  E(vib)   ...       0.00
freq.    1446.44  E(vib)   ...       0.00
freq.    1522.63  E(vib)   ...       0.00
freq.    1523.62  E(vib)   ...       0.00
freq.    1528.20  E(vib)   ...       0.00
freq.    1570.60  E(vib)   ...       0.00
freq.    1575.65  E(vib)   ...       0.00
freq.    1699.33  E(vib)   ...       0.00
freq.    1701.06  E(vib)   ...       0.00
freq.    1719.95  E(vib)   ...       0.00
freq.    1723.26  E(vib)   ...       0.00
freq.    1854.47  E(vib)   ...       0.00
freq.    3155.90  E(vib)   ...       0.00
freq.    3225.80  E(vib)   ...       0.00
freq.    3242.51  E(vib)   ...       0.00
freq.    3251.34  E(vib)   ...       0.00
freq.    3251.49  E(vib)   ...       0.00
freq.    3261.94  E(vib)   ...       0.00
freq.    3263.71  E(vib)   ...       0.00
freq.    3271.17  E(vib)   ...       0.00
freq.    3273.50  E(vib)   ...       0.00
freq.    3278.00  E(vib)   ...       0.00
freq.    3285.31  E(vib)   ...       0.00
freq.    3292.81  E(vib)   ...       0.00

------------
INNER ENERGY
------------

The inner energy is: U= E(el) + E(ZPE) + E(vib) + E(rot) + E(trans)
    E(el)   - is the total energy from the electronic structure calculation
              = E(kin-el) + E(nuc-el) + E(el-el) + E(nuc-nuc)
    E(ZPE)  - the the zero temperature vibrational energy from the frequency calculation
    E(vib)  - the the finite temperature correction to E(ZPE) due to population
              of excited vibrational states
    E(rot)  - is the rotational thermal energy
    E(trans)- is the translational thermal energy

Summary of contributions to the inner energy U:
Electronic energy                ...   -119.08548589 Eh
Zero point energy                ...      0.23056968 Eh     144.68 kcal/mol
Thermal vibrational correction   ...      0.00993998 Eh       6.24 kcal/mol
Thermal rotational correction    ...      0.00141627 Eh       0.89 kcal/mol
Thermal translational correction ...      0.00141627 Eh       0.89 kcal/mol
-----------------------------------------------------------------------
Total thermal energy                   -118.84214369 Eh

Summary of corrections to the electronic energy:
(perhaps to be used in another calculation)
Total thermal correction                  0.01277252 Eh       8.01 kcal/mol
Non-thermal (ZPE) correction              0.23056968 Eh     144.68 kcal/mol
-----------------------------------------------------------------------
Total correction                          0.24334220 Eh     152.70 kcal/mol

--------
ENTHALPY
--------

The enthalpy is H = U + kB*T
                kB is Boltzmann's constant
Total thermal energy              ...   -118.84214369 Eh
Thermal Enthalpy correction       ...      0.00094421 Eh       0.59 kcal/mol
-----------------------------------------------------------------------
Total Enthalpy                    ...   -118.84119948 Eh

Note: Only C1 symmetry has been detected, increase convergence thresholds
      if your molecule has a higher symmetry. Symmetry factor of 1.0 is
      used for the rotational entropy correction.

Note: Rotational entropy computed according to Herzberg
Infrared and Raman Spectra, Chapter V,1, Van Nostrand Reinhold, 1945
Point Group:  C1, Symmetry Number:   1
Rotational constants in cm-1:     0.042234     0.008497     0.008197

Vibrational entropy computed according to the QRRHO of S. Grimme
Chem.Eur.J. 2012 18 9955 using a reference frequency of 100.0 cm-1

-------
ENTROPY
-------

The entropy contributions are T*S = T*(S(el)+S(vib)+S(rot)+S(trans))
     S(el)   - electronic entropy

                             ****ORCA TERMINATED NORMALLY****
TOTAL RUN TIME: 0 days 0 hours 18 minutes 51 seconds 862 msec
