                         Program Version 6.0.1  -  RELEASE   -
|  1> ! wB97X-3c OPT FREQ TightSCF
|  2> %pal
|  3>   nprocs 40
|  4> end
|  5> * xyz 0 1
|  6> C     -1.486177     0.764071     0.414085
|  7> C     -0.817620    -0.056422    -0.688579
|  8> C      0.255261    -1.005644    -0.140458
|  9> C      1.444265    -0.256638     0.378201
| 10> O      1.596262    -0.091438     1.618182
| 11> O      2.366174     0.282397    -0.513570
| 12> H     -1.936764     0.093180     1.176150
| 13> H     -0.748559     1.434154     0.903758
| 14> H     -2.290314     1.390336    -0.026420
| 15> H     -1.597946    -0.660640    -1.199910
| 16> H     -0.371641     0.628028    -1.443088
| 17> H      0.592443    -1.676740    -0.959212
| 18> H     -0.174687    -1.646312     0.660533
| 19> H      3.169303     0.801668    -0.179671
| 20> *
| 21>
| 22>                          ****END OF INPUT****
 Total Charge           Charge          ....    0
 Multiplicity           Mult            ....    1
 Number of Electrons    NEL             ....   36
Dispersion correction           -0.011273157
FINAL SINGLE POINT ENERGY       -59.740683280157
Dispersion correction             ... done (  0.1 sec)
Dispersion correction           -0.011459519
FINAL SINGLE POINT ENERGY       -59.759866515733
Dispersion correction             ... done (  0.1 sec)
Dispersion correction           -0.011504964
FINAL SINGLE POINT ENERGY       -59.762089534987
Dispersion correction             ... done (  0.1 sec)
FINAL SINGLE POINT ENERGY       -59.762368074935
FINAL SINGLE POINT ENERGY       -59.762484111574
FINAL SINGLE POINT ENERGY       -59.762668247235
FINAL SINGLE POINT ENERGY       -59.762707486679
FINAL SINGLE POINT ENERGY       -59.762797175060
FINAL SINGLE POINT ENERGY       -59.762838077081
FINAL SINGLE POINT ENERGY       -59.762879505221
FINAL SINGLE POINT ENERGY       -59.762890601953
Dispersion correction             ... done (  0.1 sec)
Dispersion correction           -0.011530641
FINAL SINGLE POINT ENERGY       -59.762893761044
Dispersion correction             ... done (  0.1 sec)
Dispersion correction           -0.011529157
FINAL SINGLE POINT ENERGY       -59.762894576517
Dispersion correction             ... done (  0.1 sec)
                    ***********************HURRAY********************

CARTESIAN COORDINATES (ANGSTROEM)
---------------------------------
  C     -1.390609    0.821878    0.353568
  C     -0.807057   -0.098937   -0.700303
  C      0.257616   -1.035241   -0.145457
  C      1.436467   -0.316493    0.437377
  O      1.861029   -0.453647    1.551212
  O      2.006766    0.528784   -0.437788
  H     -1.828518    0.253791    1.174392
  H     -0.628843    1.476935    0.776735
  H     -2.169498    1.454488   -0.069199
  H     -1.598062   -0.710324   -1.136157
  H     -0.382000    0.487373   -1.514961
  H      0.633675   -1.681704   -0.939647
  H     -0.145546   -1.668592    0.641456
  H      2.754582    0.941691    0.008773

 Multiplicity           Mult            ....    1
 Number of Electrons    NEL             ....   36
 Basis Dimension        Dim             ....  118

ORBITAL ENERGIES
----------------

  NO   OCC          E(Eh)            E(eV)
   0   2.0000      -1.246745       -33.9257
   1   2.0000      -1.145446       -31.1692
   2   2.0000      -0.954267       -25.9669
   3   2.0000      -0.860018       -23.4023
   4   2.0000      -0.764988       -20.8164
   5   2.0000      -0.724084       -19.7033
   6   2.0000      -0.617122       -16.7927
   7   2.0000      -0.611274       -16.6336
   8   2.0000      -0.595500       -16.2044
   9   2.0000      -0.570921       -15.5356
  10   2.0000      -0.541327       -14.7303
  11   2.0000      -0.521571       -14.1927
  12   2.0000      -0.508250       -13.8302
  13   2.0000      -0.468332       -12.7440
  14   2.0000      -0.461788       -12.5659
  15   2.0000      -0.451717       -12.2919
  16   2.0000      -0.439658       -11.9637
  17   2.0000      -0.391733       -10.6596
  18   0.0000       0.074201         2.0191
  19   0.0000       0.083425         2.2701
  20   0.0000       0.103739         2.8229
  21   0.0000       0.115292         3.1373
  22   0.0000       0.119078         3.2403

MULLIKEN ATOMIC CHARGES
-----------------------
   0 C :   -0.064010
   1 C :   -0.069524
   2 C :   -0.065499
   3 C :    0.214000
   4 O :   -0.315189
   5 O :   -0.180126
   6 H :    0.033671
   7 H :    0.036933
   8 H :    0.035721
   9 H :    0.036282
  10 H :    0.049884
  11 H :    0.061493
  12 H :    0.056009
  13 H :    0.170354
Sum of atomic charges:   -0.0000000

LOEWDIN ATOMIC CHARGES
----------------------
   0 C :   -0.110803
   1 C :   -0.085279
   2 C :   -0.064965
   3 C :   -0.035792
   4 O :   -0.145342
   5 O :    0.012821
   6 H :    0.045600
   7 H :    0.044558
   8 H :    0.047148
   9 H :    0.048948
  10 H :    0.048713
  11 H :    0.063704
  12 H :    0.062919
  13 H :    0.067769

  Mayer bond orders larger than 0.100000
B(  0-C ,  1-C ) :   0.9889 B(  0-C ,  6-H ) :   0.9919 B(  0-C ,  7-H ) :   0.9913
B(  0-C ,  8-H ) :   0.9951 B(  1-C ,  2-C ) :   0.9834 B(  1-C ,  9-H ) :   0.9969
B(  1-C , 10-H ) :   0.9905 B(  2-C ,  3-C ) :   1.0285 B(  2-C , 11-H ) :   0.9757
B(  2-C , 12-H ) :   0.9902 B(  3-C ,  4-O ) :   1.9471 B(  3-C ,  5-O ) :   1.1566
B(  5-O , 13-H ) :   1.0144

Dispersion correction           -0.011529090
FINAL SINGLE POINT ENERGY       -59.762894745276

DIPOLE MOMENT
-------------

Method             : SCF
Type of density    : Electron Density
Multiplicity       :   1
Irrep              :   0
Energy             :   -59.7513656553470511 Eh
Relativity type    :
Basis              : AO
                                X                 Y                 Z
Electronic contribution:      6.475908822      -1.472246530       1.503586889
Nuclear contribution   :     -6.801459124       1.617616419      -2.212769219
                        -----------------------------------------
Total Dipole Moment    :     -0.325550302       0.145369889      -0.709182330
                        -----------------------------------------
Magnitude (a.u.)       :      0.793760028
Magnitude (Debye)      :      2.017577651

VIBRATIONAL FREQUENCIES
-----------------------

Scaling factor for frequencies =  1.000000000  (already applied!)

     0:       0.00 cm**-1
     1:       0.00 cm**-1
     2:       0.00 cm**-1
     3:       0.00 cm**-1
     4:       0.00 cm**-1
     5:       0.00 cm**-1
     6:      37.90 cm**-1
     7:     108.60 cm**-1
     8:     199.70 cm**-1
     9:     280.21 cm**-1
    10:     384.32 cm**-1
    11:     462.56 cm**-1
    12:     574.65 cm**-1
    13:     619.69 cm**-1
    14:     720.89 cm**-1
    15:     794.52 cm**-1
    16:     892.01 cm**-1
    17:     917.16 cm**-1
    18:     942.74 cm**-1
    19:    1083.50 cm**-1
    20:    1123.05 cm**-1
    21:    1141.69 cm**-1
    22:    1236.72 cm**-1
    23:    1280.99 cm**-1
    24:    1320.85 cm**-1
    25:    1370.19 cm**-1
    26:    1417.69 cm**-1
    27:    1432.73 cm**-1
    28:    1460.45 cm**-1
    29:    1504.21 cm**-1
    30:    1522.53 cm**-1
    31:    1532.22 cm**-1
    32:    1533.26 cm**-1
    33:    1893.31 cm**-1
    34:    3103.77 cm**-1
    35:    3117.80 cm**-1
    36:    3130.69 cm**-1
    37:    3168.69 cm**-1
    38:    3194.41 cm**-1
    39:    3199.38 cm**-1
    40:    3205.00 cm**-1
    41:    3880.46 cm**-1

IR SPECTRUM
-----------

 Mode   freq       eps      Int      T**2         TX        TY        TZ
       cm**-1   L/(mol*cm) km/mol    a.u.
----------------------------------------------------------------------------
  6:     37.90   0.000199    1.01  0.001639  (-0.030749  0.025149  0.007784)
  7:    108.60   0.000014    0.07  0.000041  (-0.006001 -0.000977 -0.001957)
  8:    199.70   0.000006    0.03  0.000010  ( 0.001772 -0.000631 -0.002477)
  9:    280.21   0.000041    0.21  0.000046  (-0.002600 -0.000912  0.006176)
 10:    384.32   0.000332    1.68  0.000269  ( 0.003354 -0.010487  0.012171)
 11:    462.56   0.000641    3.24  0.000433  (-0.001766  0.001936  0.020637)
 12:    574.65   0.008676   43.84  0.004711  ( 0.066025 -0.001140 -0.018726)
 13:    619.69   0.014491   73.23  0.007297  ( 0.022732 -0.080715 -0.016295)
 14:    720.89   0.009347   47.24  0.004046  (-0.043446  0.039362  0.024683)
 15:    794.52   0.004281   21.63  0.001681  (-0.038953 -0.011848  0.004864)
 16:    892.01   0.001493    7.55  0.000522  (-0.010581 -0.002441  0.020113)
 17:    917.16   0.001163    5.88  0.000396  (-0.001071  0.019818  0.001298)
 18:    942.74   0.000524    2.65  0.000173  (-0.008742  0.009806  0.000906)
 19:   1083.50   0.006517   32.93  0.001877  (-0.019504 -0.029409  0.025135)
 20:   1123.05   0.007968   40.27  0.002214  (-0.027522 -0.031375  0.021731)
 21:   1141.69   0.003847   19.44  0.001051  (-0.019442 -0.015420  0.020874)
 22:   1236.72   0.028679  144.93  0.007237  ( 0.043231  0.052757 -0.050837)
 23:   1280.99   0.004116   20.80  0.001003  ( 0.026595  0.014864 -0.008624)
 24:   1320.85   0.000594    3.00  0.000140  ( 0.001951 -0.006482  0.009724)
 25:   1370.19   0.006021   30.43  0.001371  ( 0.028520  0.021741 -0.009238)
 26:   1417.69   0.000507    2.56  0.000112  ( 0.010366  0.001135 -0.001665)
 27:   1432.73   0.012279   62.05  0.002675  (-0.036592 -0.025048  0.026612)
 28:   1460.45   0.001929    9.75  0.000412  (-0.003219 -0.019554 -0.004422)
 29:   1504.21   0.003101   15.67  0.000643  (-0.000130  0.023084 -0.010507)
 30:   1522.53   0.000348    1.76  0.000071  (-0.002583 -0.007562 -0.002730)
 31:   1532.22   0.003009   15.21  0.000613  ( 0.018290  0.016296  0.003564)
 32:   1533.26   0.001685    8.51  0.000343  ( 0.001071 -0.013387  0.012750)
 33:   1893.31   0.076440  386.30  0.012599  (-0.033766  0.025395 -0.103991)
 34:   3103.77   0.004242   21.44  0.000427  ( 0.008783 -0.012503 -0.013896)
 35:   3117.80   0.004380   22.14  0.000438  (-0.011634 -0.000192 -0.017408)
 36:   3130.69   0.001954    9.87  0.000195  (-0.001295  0.011984  0.007033)
 37:   3168.69   0.000347    1.75  0.000034  ( 0.003222  0.004851 -0.000513)
 38:   3194.41   0.003380   17.08  0.000330  (-0.014109 -0.011369  0.001379)
 39:   3199.38   0.002955   14.93  0.000288  (-0.011124  0.007969 -0.010050)
 40:   3205.00   0.002169   10.96  0.000211  ( 0.007830  0.008420 -0.008888)
 41:   3880.46   0.021488  108.59  0.001728  ( 0.034151  0.021943  0.008960)

--------------------------
THERMOCHEMISTRY AT 298.15K
--------------------------

Temperature         ...   298.15 K
Pressure            ...     1.00 atm
Total Mass          ...    88.11 AMU
Quasi RRHO          ...     True
Cut-Off Frequency   ...     1.00 cm^-1

Throughout the following assumptions are being made:
  (1) The electronic state is orbitally nondegenerate
  (2) There are no thermally accessible electronically excited states
  (3) Hindered rotations indicated by low frequency modes are not
      treated as such but are treated as vibrations and this may
      cause some error
  (4) All equations used are the standard statistical mechanics
      equations for an ideal gas
  (5) All vibrations are strictly harmonic

freq.      37.90  E(vib)   ...       0.54
freq.     108.60  E(vib)   ...       0.45
freq.     199.70  E(vib)   ...       0.35
freq.     280.21  E(vib)   ...       0.28
freq.     384.32  E(vib)   ...       0.20
freq.     462.56  E(vib)   ...       0.16
freq.     574.65  E(vib)   ...       0.11
freq.     619.69  E(vib)   ...       0.09
freq.     720.89  E(vib)   ...       0.07
freq.     794.52  E(vib)   ...       0.05
freq.     892.01  E(vib)   ...       0.03
freq.     917.16  E(vib)   ...       0.03
freq.     942.74  E(vib)   ...       0.03
freq.    1083.50  E(vib)   ...       0.02
freq.    1123.05  E(vib)   ...       0.01
freq.    1141.69  E(vib)   ...       0.01
freq.    1236.72  E(vib)   ...       0.01
freq.    1280.99  E(vib)   ...       0.01
freq.    1320.85  E(vib)   ...       0.01
freq.    1370.19  E(vib)   ...       0.01
freq.    1417.69  E(vib)   ...       0.00
freq.    1432.73  E(vib)   ...       0.00
freq.    1460.45  E(vib)   ...       0.00
freq.    1504.21  E(vib)   ...       0.00
freq.    1522.53  E(vib)   ...       0.00
freq.    1532.22  E(vib)   ...       0.00
freq.    1533.26  E(vib)   ...       0.00
freq.    1893.31  E(vib)   ...       0.00
freq.    3103.77  E(vib)   ...       0.00
freq.    3117.80  E(vib)   ...       0.00
freq.    3130.69  E(vib)   ...       0.00
freq.    3168.69  E(vib)   ...       0.00
freq.    3194.41  E(vib)   ...       0.00
freq.    3199.38  E(vib)   ...       0.00
freq.    3205.00  E(vib)   ...       0.00
freq.    3880.46  E(vib)   ...       0.00

------------
INNER ENERGY
------------

The inner energy is: U= E(el) + E(ZPE) + E(vib) + E(rot) + E(trans)
    E(el)   - is the total energy from the electronic structure calculation
              = E(kin-el) + E(nuc-el) + E(el-el) + E(nuc-nuc)
    E(ZPE)  - the the zero temperature vibrational energy from the frequency calculation
    E(vib)  - the the finite temperature correction to E(ZPE) due to population
              of excited vibrational states
    E(rot)  - is the rotational thermal energy
    E(trans)- is the translational thermal energy

Summary of contributions to the inner energy U:
Electronic energy                ...    -59.76289475 Eh
Zero point energy                ...      0.12253926 Eh      76.89 kcal/mol
Thermal vibrational correction   ...      0.00397826 Eh       2.50 kcal/mol
Thermal rotational correction    ...      0.00141627 Eh       0.89 kcal/mol
Thermal translational correction ...      0.00141627 Eh       0.89 kcal/mol
-----------------------------------------------------------------------
Total thermal energy                    -59.63354468 Eh

Summary of corrections to the electronic energy:
(perhaps to be used in another calculation)
Total thermal correction                  0.00681081 Eh       4.27 kcal/mol
Non-thermal (ZPE) correction              0.12253926 Eh      76.89 kcal/mol
-----------------------------------------------------------------------
Total correction                          0.12935007 Eh      81.17 kcal/mol

--------
ENTHALPY
--------

The enthalpy is H = U + kB*T
                kB is Boltzmann's constant
Total thermal energy              ...    -59.63354468 Eh
Thermal Enthalpy correction       ...      0.00094421 Eh       0.59 kcal/mol
-----------------------------------------------------------------------
Total Enthalpy                    ...    -59.63260047 Eh

Note: Only C1 symmetry has been detected, increase convergence thresholds
      if your molecule has a higher symmetry. Symmetry factor of 1.0 is
      used for the rotational entropy correction.

Note: Rotational entropy computed according to Herzberg
Infrared and Raman Spectra, Chapter V,1, Van Nostrand Reinhold, 1945
Point Group:  C1, Symmetry Number:   1
Rotational constants in cm-1:     0.193927     0.079320     0.075446

Vibrational entropy computed according to the QRRHO of S. Grimme
Chem.Eur.J. 2012 18 9955 using a reference frequency of 100.0 cm-1

-------
ENTROPY
-------

The entropy contributions are T*S = T*(S(el)+S(vib)+S(rot)+S(trans))
     S(el)   - electronic entropy
     S(vib)  - vibrational entropy
     S(rot)  - rotational entropy
     S(trans)- translational entropy
The entropies will be listed as multiplied by the temperature to get
units of energy

Electronic entropy                ...      0.00000000 Eh      0.00 kcal/mol
Vibrational entropy               ...      0.00691858 Eh      4.34 kcal/mol
Rotational entropy                ...      0.01270161 Eh      7.97 kcal/mol
Translational entropy             ...      0.01869190 Eh     11.73 kcal/mol
-----------------------------------------------------------------------
Final entropy term                ...      0.03831209 Eh     24.04 kcal/mol

In case the symmetry of your molecule has not been determined correctly
or in case you have a reason to use a different symmetry number we print
out the resulting rotational entropy values for sn=1,12:

 non-linear molecules -----------------------------------
|  sn= 1 | S(rot)=       0.01270161 Eh      7.97 kcal/mol|
|  sn= 2 | S(rot)=       0.01204716 Eh      7.56 kcal/mol|
|  sn= 3 | S(rot)=       0.01166432 Eh      7.32 kcal/mol|
|  sn= 4 | S(rot)=       0.01139270 Eh      7.15 kcal/mol|
|  sn= 5 | S(rot)=       0.01118201 Eh      7.02 kcal/mol|
|  sn= 6 | S(rot)=       0.01100987 Eh      6.91 kcal/mol|
|  sn= 7 | S(rot)=       0.01086432 Eh      6.82 kcal/mol|
|  sn= 8 | S(rot)=       0.01073824 Eh      6.74 kcal/mol|
|  sn= 9 | S(rot)=       0.01062704 Eh      6.67 kcal/mol|
|  sn=10 | S(rot)=       0.01052756 Eh      6.61 kcal/mol|
|  sn=11 | S(rot)=       0.01043757 Eh      6.55 kcal/mol|
|  sn=12 | S(rot)=       0.01035541 Eh      6.50 kcal/mol|
 linear molecules ---------------------------------------
|  Dinfh | S(rot)=       0.00776589 Eh      4.87 kcal/mol|
|  Cinfv | S(rot)=       0.00842035 Eh      5.28 kcal/mol|
 --------------------------------------------------------

-------------------
GIBBS FREE ENERGY
-------------------

The Gibbs free energy is G = H - T*S

                             ****ORCA TERMINATED NORMALLY****
TOTAL RUN TIME: 0 days 0 hours 6 minutes 58 seconds 562 msec
