                         Program Version 6.0.1  -  RELEASE   -
|  1> ! wB97X-3c OPT FREQ TightSCF
|  2> %pal
|  3>   nprocs 40
|  4> end
|  5> * xyz 0 1
|  6> C      3.397875    -0.436031    -0.402603
|  7> C      2.253867     0.222013     0.379265
|  8> C      1.469607     1.231387    -0.513416
|  9> C      0.039908     0.772827    -0.839331
| 10> C     -0.770791     0.535335     0.458617
| 11> C      0.036284    -0.287246     1.441129
| 12> O     -0.383151    -0.479105     2.572796
| 13> C      1.360018    -0.863683     1.023382
| 14> C     -2.176974    -0.089444     0.213651
| 15> C     -2.127526    -1.490545    -0.420254
| 16> C     -3.078658     0.837434    -0.614516
| 17> H      4.103961     0.338235    -0.771749
| 18> H      2.999484    -1.002982    -1.271418
| 19> H      3.961957    -1.132271     0.254367
| 20> H      2.719456     0.801710     1.208150
| 21> H      2.006147     1.428207    -1.467664
| 22> H      1.408322     2.208145     0.015935
| 23> H      0.100671    -0.152015    -1.450063
| 24> H     -0.450692     1.558103    -1.452925
| 25> H     -0.923546     1.529912     0.935110
| 26> H      1.162598    -1.681890     0.296677
| 27> H      1.882588    -1.307775     1.899283
| 28> H     -2.668199    -0.199001     1.206675
| 29> H     -1.463571    -2.164141     0.160323
| 30> H     -1.773497    -1.447542    -1.470954
| 31> H     -3.144643    -1.937374    -0.420312
| 32> H     -3.105863     1.853090    -0.165605
| 33> H     -2.719233     0.913739    -1.662285
| 34> H     -4.116397     0.440908    -0.630757
| 35> *
| 36>
| 37>                          ****END OF INPUT****
 Total Charge           Charge          ....    0
 Multiplicity           Mult            ....    1
 Number of Electrons    NEL             ....   64
Dispersion correction           -0.033719409
FINAL SINGLE POINT ENERGY       -83.912245138567
Dispersion correction             ... done (  0.1 sec)
Dispersion correction           -0.034257974
FINAL SINGLE POINT ENERGY       -83.920541233551
Dispersion correction             ... done (  0.1 sec)
Dispersion correction           -0.034352875
FINAL SINGLE POINT ENERGY       -83.921240631978
Dispersion correction             ... done (  0.1 sec)
FINAL SINGLE POINT ENERGY       -83.921431137508
FINAL SINGLE POINT ENERGY       -83.921445566654
FINAL SINGLE POINT ENERGY       -83.921471644119
FINAL SINGLE POINT ENERGY       -83.921492088672
FINAL SINGLE POINT ENERGY       -83.921529729330
FINAL SINGLE POINT ENERGY       -83.921553002453
Dispersion correction             ... done (  0.1 sec)
Dispersion correction           -0.034494332
FINAL SINGLE POINT ENERGY       -83.921566322430
Dispersion correction             ... done (  0.1 sec)
Dispersion correction           -0.034488297
FINAL SINGLE POINT ENERGY       -83.921570229711
Dispersion correction             ... done (  0.1 sec)
                    ***********************HURRAY********************

CARTESIAN COORDINATES (ANGSTROEM)
---------------------------------
  C      3.247100   -0.486032   -0.527792
  C      2.249943    0.217275    0.376559
  C      1.462636    1.301191   -0.376910
  C      0.079412    0.829332   -0.792710
  C     -0.766482    0.569292    0.447555
  C      0.011065   -0.223005    1.482351
  O     -0.415565   -0.384116    2.599778
  C      1.312844   -0.810470    1.020737
  C     -2.133443   -0.088807    0.203059
  C     -2.025978   -1.510516   -0.326293
  C     -3.004258    0.763706   -0.704172
  H      3.994294    0.211661   -0.905159
  H      2.742715   -0.933084   -1.386480
  H      3.769575   -1.282849    0.002100
  H      2.808961    0.700590    1.180041
  H      2.033179    1.630062   -1.246259
  H      1.344648    2.180744    0.260359
  H      0.160699   -0.069825   -1.407616
  H     -0.400188    1.583752   -1.415447
  H     -0.964106    1.533762    0.925898
  H      1.052822   -1.565570    0.272295
  H      1.787708   -1.325581    1.852864
  H     -2.610741   -0.138143    1.183697
  H     -1.467933   -2.154483    0.352979
  H     -1.545806   -1.544415   -1.304610
  H     -3.018652   -1.945712   -0.438992
  H     -3.076060    1.788425   -0.338840
  H     -2.614364    0.795767   -1.721929
  H     -4.014024    0.357050   -0.755554

 Multiplicity           Mult            ....    1
 Number of Electrons    NEL             ....   64
 Basis Dimension        Dim             ....  233

ORBITAL ENERGIES
----------------

  NO   OCC          E(Eh)            E(eV)
   0   2.0000      -1.166537       -31.7431
   1   2.0000      -0.994873       -27.0719
   2   2.0000      -0.955059       -25.9885
   3   2.0000      -0.896573       -24.3970
   4   2.0000      -0.866932       -23.5904
   5   2.0000      -0.824480       -22.4352
   6   2.0000      -0.822225       -22.3739
   7   2.0000      -0.765192       -20.8219
   8   2.0000      -0.707833       -19.2611
   9   2.0000      -0.694377       -18.8949
  10   2.0000      -0.638230       -17.3671
  11   2.0000      -0.616047       -16.7635
  12   2.0000      -0.601033       -16.3549
  13   2.0000      -0.585353       -15.9283
  14   2.0000      -0.563323       -15.3288
  15   2.0000      -0.558968       -15.2103
  16   2.0000      -0.540322       -14.7029
  17   2.0000      -0.527744       -14.3606
  18   2.0000      -0.516145       -14.0450
  19   2.0000      -0.511913       -13.9299
  20   2.0000      -0.500743       -13.6259
  21   2.0000      -0.494998       -13.4696
  22   2.0000      -0.489396       -13.3171
  23   2.0000      -0.476237       -12.9591
  24   2.0000      -0.473586       -12.8869
  25   2.0000      -0.452823       -12.3220
  26   2.0000      -0.447172       -12.1682
  27   2.0000      -0.436616       -11.8809
  28   2.0000      -0.426679       -11.6105
  29   2.0000      -0.415363       -11.3026
  30   2.0000      -0.413237       -11.2447
  31   2.0000      -0.345772        -9.4089
  32   0.0000       0.066259         1.8030
  33   0.0000       0.083375         2.2687
  34   0.0000       0.090704         2.4682
  35   0.0000       0.097236         2.6459
  36   0.0000       0.103941         2.8284

MULLIKEN ATOMIC CHARGES
-----------------------
   0 C :   -0.047225
   1 C :   -0.095555
   2 C :   -0.032827
   3 C :   -0.015327
   4 C :   -0.113473
   5 C :    0.185847
   6 O :   -0.308056
   7 C :   -0.031729
   8 C :   -0.084785
   9 C :   -0.047752
  10 C :   -0.039890
  11 H :    0.032925
  12 H :    0.024343
  13 H :    0.034158
  14 H :    0.043029
  15 H :    0.029661
  16 H :    0.032829
  17 H :    0.014097
  18 H :    0.045175
  19 H :    0.056784
  20 H :    0.038235
  21 H :    0.048060
  22 H :    0.052503
  23 H :    0.038847
  24 H :    0.024510
  25 H :    0.034019
  26 H :    0.028402
  27 H :    0.021076
  28 H :    0.032117
Sum of atomic charges:    0.0000000

LOEWDIN ATOMIC CHARGES
----------------------
   0 C :   -0.109815
   1 C :   -0.067365
   2 C :   -0.071895
   3 C :   -0.075487
   4 C :   -0.062577
   5 C :    0.012201
   6 O :   -0.127391
   7 C :   -0.067916
   8 C :   -0.071111
   9 C :   -0.106221
  10 C :   -0.107089
  11 H :    0.045024
  12 H :    0.042571
  13 H :    0.046642
  14 H :    0.047643
  15 H :    0.046983
  16 H :    0.046096
  17 H :    0.037550
  18 H :    0.048081
  19 H :    0.060985
  20 H :    0.055463
  21 H :    0.057730
  22 H :    0.055804
  23 H :    0.044799
  24 H :    0.037708
  25 H :    0.048692
  26 H :    0.045316
  27 H :    0.040751
  28 H :    0.046830

  Mayer bond orders larger than 0.100000
B(  0-C ,  1-C ) :   1.0018 B(  0-C , 11-H ) :   0.9942 B(  0-C , 12-H ) :   0.9914
B(  0-C , 13-H ) :   0.9943 B(  1-C ,  2-C ) :   0.9837 B(  1-C ,  7-C ) :   0.9702
B(  1-C , 14-H ) :   0.9993 B(  2-C ,  3-C ) :   0.9949 B(  2-C , 15-H ) :   1.0008
B(  2-C , 16-H ) :   0.9954 B(  3-C ,  4-C ) :   0.9613 B(  3-C , 17-H ) :   0.9898
B(  3-C , 18-H ) :   0.9970 B(  4-C ,  5-C ) :   1.0147 B(  4-C ,  8-C ) :   0.9966
B(  4-C , 19-H ) :   0.9742 B(  5-C ,  6-O ) :   1.9322 B(  5-C ,  7-C ) :   1.0202
B(  7-C , 20-H ) :   0.9670 B(  7-C , 21-H ) :   0.9865 B(  8-C ,  9-C ) :   0.9891
B(  8-C , 10-C ) :   1.0016 B(  8-C , 22-H ) :   0.9889 B(  9-C , 23-H ) :   0.9909
B(  9-C , 24-H ) :   0.9877 B(  9-C , 25-H ) :   0.9951 B( 10-C , 26-H ) :   0.9931
B( 10-C , 27-H ) :   0.9901 B( 10-C , 28-H ) :   0.9940

Dispersion correction           -0.034488770
FINAL SINGLE POINT ENERGY       -83.921570524343

DIPOLE MOMENT
-------------

Method             : SCF
Type of density    : Electron Density
Multiplicity       :   1
Irrep              :   0
Energy             :   -83.8870817547056760 Eh
Relativity type    :
Basis              : AO
                                X                 Y                 Z
Electronic contribution:      0.708929869       0.997653440       8.860370842
Nuclear contribution   :     -0.322306841      -0.776727206     -10.002456549
                        -----------------------------------------
Total Dipole Moment    :      0.386623027       0.220926235      -1.142085707
                        -----------------------------------------
Magnitude (a.u.)       :      1.225824429
Magnitude (Debye)      :      3.115798081

VIBRATIONAL FREQUENCIES
-----------------------

Scaling factor for frequencies =  1.000000000  (already applied!)

     0:       0.00 cm**-1
     1:       0.00 cm**-1
     2:       0.00 cm**-1
     3:       0.00 cm**-1
     4:       0.00 cm**-1
     5:       0.00 cm**-1
     6:      35.56 cm**-1
     7:      75.82 cm**-1
     8:      94.87 cm**-1
     9:     157.03 cm**-1
    10:     195.93 cm**-1
    11:     244.86 cm**-1
    12:     264.13 cm**-1
    13:     266.40 cm**-1
    14:     278.60 cm**-1
    15:     311.01 cm**-1
    16:     335.38 cm**-1
    17:     379.08 cm**-1
    18:     403.03 cm**-1
    19:     426.04 cm**-1
    20:     496.95 cm**-1
    21:     522.01 cm**-1
    22:     554.33 cm**-1
    23:     584.53 cm**-1
    24:     719.07 cm**-1
    25:     761.88 cm**-1
    26:     816.71 cm**-1
    27:     872.12 cm**-1
    28:     912.94 cm**-1
    29:     919.86 cm**-1
    30:     954.63 cm**-1
    31:     975.99 cm**-1
    32:     995.00 cm**-1
    33:    1013.06 cm**-1
    34:    1023.24 cm**-1
    35:    1029.67 cm**-1
    36:    1071.82 cm**-1
    37:    1102.42 cm**-1
    38:    1111.63 cm**-1
    39:    1151.61 cm**-1
    40:    1184.96 cm**-1
    41:    1209.06 cm**-1
    42:    1215.24 cm**-1
    43:    1243.63 cm**-1
    44:    1258.80 cm**-1
    45:    1288.64 cm**-1
    46:    1292.39 cm**-1
    47:    1321.09 cm**-1
    48:    1347.07 cm**-1
    49:    1370.64 cm**-1
    50:    1395.98 cm**-1
    51:    1399.98 cm**-1
    52:    1403.32 cm**-1
    53:    1412.08 cm**-1
    54:    1425.12 cm**-1
    55:    1432.69 cm**-1
    56:    1445.15 cm**-1
    57:    1447.62 cm**-1
    58:    1457.11 cm**-1
    59:    1499.83 cm**-1
    60:    1515.79 cm**-1
    61:    1522.49 cm**-1
    62:    1524.82 cm**-1
    63:    1527.25 cm**-1
    64:    1534.67 cm**-1
    65:    1534.84 cm**-1
    66:    1540.24 cm**-1
    67:    1541.04 cm**-1
    68:    1862.88 cm**-1
    69:    3089.95 cm**-1
    70:    3091.18 cm**-1
    71:    3091.52 cm**-1
    72:    3095.58 cm**-1
    73:    3096.07 cm**-1
    74:    3099.55 cm**-1
    75:    3108.70 cm**-1
    76:    3114.84 cm**-1
    77:    3119.78 cm**-1
    78:    3154.09 cm**-1
    79:    3165.31 cm**-1
    80:    3180.08 cm**-1
    81:    3185.11 cm**-1
    82:    3187.18 cm**-1
    83:    3188.26 cm**-1
    84:    3188.96 cm**-1
    85:    3190.14 cm**-1
    86:    3192.34 cm**-1

IR SPECTRUM
-----------

 Mode   freq       eps      Int      T**2         TX        TY        TZ
       cm**-1   L/(mol*cm) km/mol    a.u.
----------------------------------------------------------------------------
  6:     35.56   0.000083    0.42  0.000724  (-0.013020 -0.019964 -0.012499)
  7:     75.82   0.000122    0.62  0.000502  ( 0.008453 -0.020629 -0.002253)
  8:     94.87   0.000826    4.18  0.002718  ( 0.034551  0.032073  0.022270)
  9:    157.03   0.000316    1.60  0.000628  (-0.012674 -0.018612 -0.011006)
 10:    195.93   0.000302    1.53  0.000481  (-0.015360  0.005256 -0.014761)
 11:    244.86   0.000036    0.18  0.000046  ( 0.005200 -0.003317  0.002809)
 12:    264.13   0.000018    0.09  0.000021  ( 0.004182 -0.001903 -0.000602)
 13:    266.40   0.000021    0.11  0.000025  ( 0.000698  0.000656  0.004862)
 14:    278.60   0.000053    0.27  0.000059  (-0.004885  0.005806 -0.001301)
 15:    311.01   0.000173    0.87  0.000174  ( 0.012326 -0.004493  0.001253)
 16:    335.38   0.000269    1.36  0.000250  (-0.012828  0.006588 -0.006478)
 17:    379.08   0.000147    0.74  0.000121  (-0.003040 -0.005127  0.009264)
 18:    403.03   0.000072    0.36  0.000056  (-0.002784  0.006531 -0.002321)
 19:    426.04   0.000365    1.84  0.000267  (-0.015327  0.001705 -0.005408)
 20:    496.95   0.000109    0.55  0.000069  (-0.008040 -0.000759  0.001813)
 21:    522.01   0.001490    7.53  0.000891  ( 0.024631 -0.016626 -0.002787)
 22:    554.33   0.000505    2.55  0.000284  (-0.005921 -0.012970  0.008989)
 23:    584.53   0.000463    2.34  0.000247  ( 0.006387 -0.008641  0.011480)
 24:    719.07   0.001383    6.99  0.000600  (-0.020265  0.006380 -0.012195)
 25:    761.88   0.000218    1.10  0.000089  ( 0.004164  0.008124  0.002454)
 26:    816.71   0.000052    0.26  0.000020  ( 0.000745 -0.001415 -0.004161)
 27:    872.12   0.000461    2.33  0.000165  ( 0.007911 -0.002905  0.009688)
 28:    912.94   0.001295    6.54  0.000443  ( 0.018272 -0.006971 -0.007758)
 29:    919.86   0.000367    1.85  0.000124  ( 0.002804  0.005699 -0.009166)
 30:    954.63   0.000216    1.09  0.000071  (-0.004123  0.006604 -0.003183)
 31:    975.99   0.000170    0.86  0.000054  ( 0.005278 -0.004510  0.002507)
 32:    995.00   0.000017    0.08  0.000005  (-0.000972 -0.001582 -0.001342)
 33:   1013.06   0.000343    1.74  0.000106  ( 0.008913 -0.002461 -0.004506)
 34:   1023.24   0.000397    2.01  0.000121  (-0.010661  0.002181 -0.001614)
 35:   1029.67   0.000346    1.75  0.000105  ( 0.000027  0.009132 -0.004617)
 36:   1071.82   0.000540    2.73  0.000157  (-0.012316  0.000641 -0.002262)
 37:   1102.42   0.000106    0.54  0.000030  (-0.004536  0.001368 -0.002747)
 38:   1111.63   0.000354    1.79  0.000099  ( 0.006216  0.002876 -0.007248)
 39:   1151.61   0.001661    8.39  0.000450  ( 0.019512 -0.006035  0.005737)
 40:   1184.96   0.000259    1.31  0.000068  ( 0.006484 -0.004507 -0.002401)
 41:   1209.06   0.002489   12.58  0.000642  (-0.025247  0.002221 -0.000342)
 42:   1215.24   0.000223    1.12  0.000057  (-0.005006 -0.005616 -0.000748)
 43:   1243.63   0.000512    2.59  0.000129  (-0.002072 -0.009454 -0.005905)
 44:   1258.80   0.004168   21.06  0.001033  ( 0.027170 -0.009871  0.014058)
 45:   1288.64   0.000955    4.83  0.000231  ( 0.013088  0.005838 -0.005099)
 46:   1292.39   0.002147   10.85  0.000518  (-0.017988  0.013395 -0.003918)
 47:   1321.09   0.001005    5.08  0.000237  (-0.012229  0.005413 -0.007658)
 48:   1347.07   0.002832   14.31  0.000656  (-0.022091  0.009150 -0.009178)
 49:   1370.64   0.000827    4.18  0.000188  ( 0.009113 -0.010257 -0.000041)
 50:   1395.98   0.001653    8.35  0.000369  (-0.014443  0.009212 -0.008715)
 51:   1399.98   0.001366    6.90  0.000305  (-0.016961  0.004083  0.000384)
 52:   1403.32   0.000670    3.39  0.000149  ( 0.012130 -0.000438  0.001290)
 53:   1412.08   0.000046    0.23  0.000010  (-0.002824 -0.001407 -0.000552)
 54:   1425.12   0.002175   10.99  0.000476  (-0.021600  0.002135 -0.002245)
 55:   1432.69   0.000795    4.02  0.000173  ( 0.012860 -0.001390 -0.002437)
 56:   1445.15   0.002655   13.42  0.000573  ( 0.008498 -0.020324  0.009384)
 57:   1447.62   0.003533   17.86  0.000762  (-0.020374  0.014631  0.011509)
 58:   1457.11   0.002543   12.85  0.000545  (-0.010612 -0.012100 -0.016899)
 59:   1499.83   0.002759   13.94  0.000574  (-0.010496  0.021067 -0.004487)
 60:   1515.79   0.000428    2.16  0.000088  ( 0.004306 -0.007049 -0.004466)
 61:   1522.49   0.001600    8.08  0.000328  (-0.005868  0.017117 -0.000672)
 62:   1524.82   0.000928    4.69  0.000190  (-0.003849 -0.007534  0.010877)
 63:   1527.25   0.000574    2.90  0.000117  (-0.002337 -0.009500 -0.004643)
 64:   1534.67   0.001960    9.90  0.000399  (-0.007184 -0.006560 -0.017432)
 65:   1534.84   0.001270    6.42  0.000258  ( 0.008964  0.011885 -0.006044)
 66:   1540.24   0.002422   12.24  0.000491  (-0.006904 -0.006100 -0.020147)
 67:   1541.04   0.003128   15.81  0.000634  ( 0.020878  0.012722 -0.005981)
 68:   1862.88   0.045281  228.83  0.007585  (-0.027866 -0.009669  0.081947)
 69:   3089.95   0.001385    7.00  0.000140  ( 0.001446  0.009487  0.006916)
 70:   3091.18   0.003002   15.17  0.000303  (-0.012025 -0.004877  0.011606)
 71:   3091.52   0.005815   29.39  0.000587  (-0.010719  0.020943  0.005784)
 72:   3095.58   0.006413   32.41  0.000646  (-0.012895  0.019798 -0.009391)
 73:   3096.07   0.001032    5.22  0.000104  ( 0.006827  0.006413 -0.004041)
 74:   3099.55   0.000961    4.86  0.000097  (-0.005543 -0.005962 -0.005521)
 75:   3108.70   0.007365   37.22  0.000739  ( 0.009479  0.014080  0.021241)
 76:   3114.84   0.005439   27.49  0.000545  ( 0.014650  0.016940  0.006582)
 77:   3119.78   0.001044    5.28  0.000104  (-0.007258  0.002092  0.006886)
 78:   3154.09   0.004632   23.41  0.000458  (-0.009868  0.000247  0.018996)
 79:   3165.31   0.005801   29.32  0.000572  ( 0.010316 -0.021455  0.002290)
 80:   3180.08   0.003963   20.03  0.000389  (-0.015764 -0.004080 -0.011124)
 81:   3185.11   0.000274    1.39  0.000027  (-0.004444  0.001238 -0.002367)
 82:   3187.18   0.003331   16.84  0.000326  ( 0.003768 -0.013108 -0.011839)
 83:   3188.26   0.007494   37.87  0.000734  ( 0.026110  0.005975 -0.004015)
 84:   3188.96   0.005528   27.94  0.000541  (-0.004593 -0.016261  0.015984)
 85:   3190.14   0.002584   13.06  0.000253  ( 0.010701  0.004684  0.010785)
 86:   3192.34   0.002902   14.67  0.000284  (-0.001695  0.003146 -0.016460)

--------------------------
THERMOCHEMISTRY AT 298.15K
--------------------------

Temperature         ...   298.15 K
Pressure            ...     1.00 atm
Total Mass          ...   154.25 AMU
Quasi RRHO          ...     True
Cut-Off Frequency   ...     1.00 cm^-1

Throughout the following assumptions are being made:
  (1) The electronic state is orbitally nondegenerate
  (2) There are no thermally accessible electronically excited states
  (3) Hindered rotations indicated by low frequency modes are not
      treated as such but are treated as vibrations and this may
      cause some error
  (4) All equations used are the standard statistical mechanics
      equations for an ideal gas
  (5) All vibrations are strictly harmonic

freq.      35.56  E(vib)   ...       0.54
freq.      75.82  E(vib)   ...       0.49
freq.      94.87  E(vib)   ...       0.47
freq.     157.03  E(vib)   ...       0.40
freq.     195.93  E(vib)   ...       0.36
freq.     244.86  E(vib)   ...       0.31
freq.     264.13  E(vib)   ...       0.29
freq.     266.40  E(vib)   ...       0.29
freq.     278.60  E(vib)   ...       0.28
freq.     311.01  E(vib)   ...       0.26
freq.     335.38  E(vib)   ...       0.24
freq.     379.08  E(vib)   ...       0.21
freq.     403.03  E(vib)   ...       0.19
freq.     426.04  E(vib)   ...       0.18
freq.     496.95  E(vib)   ...       0.14
freq.     522.01  E(vib)   ...       0.13
freq.     554.33  E(vib)   ...       0.12
freq.     584.53  E(vib)   ...       0.11
freq.     719.07  E(vib)   ...       0.07
freq.     761.88  E(vib)   ...       0.06
freq.     816.71  E(vib)   ...       0.05
freq.     872.12  E(vib)   ...       0.04
freq.     912.94  E(vib)   ...       0.03
freq.     919.86  E(vib)   ...       0.03
freq.     954.63  E(vib)   ...       0.03
freq.     975.99  E(vib)   ...       0.03
freq.     995.00  E(vib)   ...       0.02
freq.    1013.06  E(vib)   ...       0.02
freq.    1023.24  E(vib)   ...       0.02
freq.    1029.67  E(vib)   ...       0.02
freq.    1071.82  E(vib)   ...       0.02
freq.    1102.42  E(vib)   ...       0.02
freq.    1111.63  E(vib)   ...       0.01
freq.    1151.61  E(vib)   ...       0.01
freq.    1184.96  E(vib)   ...       0.01
freq.    1209.06  E(vib)   ...       0.01
freq.    1215.24  E(vib)   ...       0.01
freq.    1243.63  E(vib)   ...       0.01
freq.    1258.80  E(vib)   ...       0.01
freq.    1288.64  E(vib)   ...       0.01
freq.    1292.39  E(vib)   ...       0.01
freq.    1321.09  E(vib)   ...       0.01
freq.    1347.07  E(vib)   ...       0.01
freq.    1370.64  E(vib)   ...       0.01
freq.    1395.98  E(vib)   ...       0.00
freq.    1399.98  E(vib)   ...       0.00
freq.    1403.32  E(vib)   ...       0.00
freq.    1412.08  E(vib)   ...       0.00
freq.    1425.12  E(vib)   ...       0.00
freq.    1432.69  E(vib)   ...       0.00
freq.    1445.15  E(vib)   ...       0.00
freq.    1447.62  E(vib)   ...       0.00
freq.    1457.11  E(vib)   ...       0.00
freq.    1499.83  E(vib)   ...       0.00
freq.    1515.79  E(vib)   ...       0.00
freq.    1522.49  E(vib)   ...       0.00
freq.    1524.82  E(vib)   ...       0.00
freq.    1527.25  E(vib)   ...       0.00
freq.    1534.67  E(vib)   ...       0.00
freq.    1534.84  E(vib)   ...       0.00
freq.    1540.24  E(vib)   ...       0.00
freq.    1541.04  E(vib)   ...       0.00
freq.    1862.88  E(vib)   ...       0.00
freq.    3089.95  E(vib)   ...       0.00
freq.    3091.18  E(vib)   ...       0.00
freq.    3091.52  E(vib)   ...       0.00
freq.    3095.58  E(vib)   ...       0.00
freq.    3096.07  E(vib)   ...       0.00
freq.    3099.55  E(vib)   ...       0.00
freq.    3108.70  E(vib)   ...       0.00
freq.    3114.84  E(vib)   ...       0.00
freq.    3119.78  E(vib)   ...       0.00
freq.    3154.09  E(vib)   ...       0.00
freq.    3165.31  E(vib)   ...       0.00
freq.    3180.08  E(vib)   ...       0.00
freq.    3185.11  E(vib)   ...       0.00
freq.    3187.18  E(vib)   ...       0.00
freq.    3188.26  E(vib)   ...       0.00
freq.    3188.96  E(vib)   ...       0.00
freq.    3190.14  E(vib)   ...       0.00
freq.    3192.34  E(vib)   ...       0.00

------------
INNER ENERGY
------------

The inner energy is: U= E(el) + E(ZPE) + E(vib) + E(rot) + E(trans)
    E(el)   - is the total energy from the electronic structure calculation
              = E(kin-el) + E(nuc-el) + E(el-el) + E(nuc-nuc)
    E(ZPE)  - the the zero temperature vibrational energy from the frequency calculation
    E(vib)  - the the finite temperature correction to E(ZPE) due to population
              of excited vibrational states
    E(rot)  - is the rotational thermal energy
    E(trans)- is the translational thermal energy

Summary of contributions to the inner energy U:
Electronic energy                ...    -83.92157052 Eh
Zero point energy                ...      0.27053305 Eh     169.76 kcal/mol
Thermal vibrational correction   ...      0.00893933 Eh       5.61 kcal/mol
Thermal rotational correction    ...      0.00141627 Eh       0.89 kcal/mol
Thermal translational correction ...      0.00141627 Eh       0.89 kcal/mol
-----------------------------------------------------------------------
Total thermal energy                    -83.63926561 Eh

Summary of corrections to the electronic energy:
(perhaps to be used in another calculation)
Total thermal correction                  0.01177187 Eh       7.39 kcal/mol
Non-thermal (ZPE) correction              0.27053305 Eh     169.76 kcal/mol
-----------------------------------------------------------------------
Total correction                          0.28230492 Eh     177.15 kcal/mol

--------
ENTHALPY
--------

The enthalpy is H = U + kB*T
                kB is Boltzmann's constant
Total thermal energy              ...    -83.63926561 Eh
Thermal Enthalpy correction       ...      0.00094421 Eh       0.59 kcal/mol
-----------------------------------------------------------------------
Total Enthalpy                    ...    -83.63832140 Eh

Note: Only C1 symmetry has been detected, increase convergence thresholds
      if your molecule has a higher symmetry. Symmetry factor of 1.0 is
      used for the rotational entropy correction.

Note: Rotational entropy computed according to Herzberg
Infrared and Raman Spectra, Chapter V,1, Van Nostrand Reinhold, 1945
Point Group:  C1, Symmetry Number:   1
Rotational constants in cm-1:     0.057252     0.025438     0.022007

Vibrational entropy computed according to the QRRHO of S. Grimme
Chem.Eur.J. 2012 18 9955 using a reference frequency of 100.0 cm-1

-------
ENTROPY
-------

                             ****ORCA TERMINATED NORMALLY****
TOTAL RUN TIME: 0 days 0 hours 15 minutes 55 seconds 928 msec
