                         Program Version 6.0.1  -  RELEASE   -
|  1> ! wB97X-3c OPT FREQ TightSCF
|  2> %pal
|  3>   nprocs 40
|  4> end
|  5> * xyz 0 1
|  6> C      2.594715     2.337324    -0.524563
|  7> O      1.621967     1.299804    -0.510256
|  8> C      1.890924     0.019008    -0.016249
|  9> O      3.046776    -0.268666     0.401268
| 10> C      0.836201    -1.020195    -0.035609
| 11> C      1.212612    -2.345060    -0.325468
| 12> C      0.250473    -3.345802    -0.465437
| 13> C     -1.100859    -3.040620    -0.320462
| 14> C     -1.494866    -1.738204    -0.011710
| 15> C     -0.540551    -0.718526     0.156535
| 16> C     -1.018703     0.612386     0.594768
| 17> O     -0.323686     1.311028     1.382873
| 18> O     -2.273047     1.067058     0.174326
| 19> C     -2.804110     2.326225     0.568925
| 20> H      2.931794     2.556066     0.510796
| 21> H      3.463528     2.035591    -1.147075
| 22> H      2.143262     3.253760    -0.956729
| 23> H      2.254356    -2.601441    -0.476082
| 24> H      0.553376    -4.358156    -0.700046
| 25> H     -1.845365    -3.817932    -0.435132
| 26> H     -2.549639    -1.534214     0.127677
| 27> H     -2.135365     3.144542     0.227283
| 28> H     -3.803322     2.461442     0.106604
| 29> H     -2.910472     2.364581     1.673763
| 30> *
| 31>
| 32>                          ****END OF INPUT****
 Total Charge           Charge          ....    0
 Multiplicity           Mult            ....    1
 Number of Electrons    NEL             ....   74
Dispersion correction           -0.030724169
FINAL SINGLE POINT ENERGY      -127.186243476087
Dispersion correction             ... done (  0.1 sec)
Dispersion correction           -0.031446262
FINAL SINGLE POINT ENERGY      -127.219146780392
Dispersion correction             ... done (  0.1 sec)
Dispersion correction           -0.031978363
FINAL SINGLE POINT ENERGY      -127.222602136254
Dispersion correction             ... done (  0.1 sec)
FINAL SINGLE POINT ENERGY      -127.220959206423
FINAL SINGLE POINT ENERGY      -127.224093907716
FINAL SINGLE POINT ENERGY      -127.224139800039
FINAL SINGLE POINT ENERGY      -127.224390290651
FINAL SINGLE POINT ENERGY      -127.224422818607
FINAL SINGLE POINT ENERGY      -127.224441492703
FINAL SINGLE POINT ENERGY      -127.224497721227
FINAL SINGLE POINT ENERGY      -127.224517168555
FINAL SINGLE POINT ENERGY      -127.224536156790
Dispersion correction             ... done (  0.1 sec)
Dispersion correction           -0.031815650
FINAL SINGLE POINT ENERGY      -127.224537679120
Dispersion correction             ... done (  0.1 sec)
Dispersion correction           -0.031814829
FINAL SINGLE POINT ENERGY      -127.224538043657
Dispersion correction             ... done (  0.1 sec)
                    ***********************HURRAY********************

CARTESIAN COORDINATES (ANGSTROEM)
---------------------------------
  C      2.570446    2.188669   -0.616802
  O      1.662849    1.101321   -0.743784
  C      1.868650    0.078771    0.079486
  O      2.835460   -0.041835    0.778320
  C      0.797183   -0.953417   -0.036501
  C      1.192873   -2.243474   -0.338075
  C      0.251736   -3.241926   -0.509548
  C     -1.093278   -2.952831   -0.374223
  C     -1.493136   -1.668310   -0.056949
  C     -0.554579   -0.664262    0.120314
  C     -0.983707    0.680535    0.589654
  O     -0.306170    1.407754    1.263253
  O     -2.226279    0.978508    0.213592
  C     -2.730353    2.225743    0.676400
  H      2.494986    2.613314    0.381282
  H      3.590033    1.856931   -0.793616
  H      2.269834    2.914591   -1.363625
  H      2.247082   -2.457037   -0.440327
  H      0.571046   -4.246412   -0.749392
  H     -1.833220   -3.729720   -0.504883
  H     -2.539994   -1.439198    0.071669
  H     -2.114935    3.041215    0.306078
  H     -3.738346    2.301185    0.284757
  H     -2.738180    2.249883    1.762920

 Multiplicity           Mult            ....    1
 Number of Electrons    NEL             ....   74
 Basis Dimension        Dim             ....  232

ORBITAL ENERGIES
----------------

  NO   OCC          E(Eh)            E(eV)
   0   2.0000      -1.254843       -34.1460
   1   2.0000      -1.244008       -33.8512
   2   2.0000      -1.154574       -31.4176
   3   2.0000      -1.145683       -31.1756
   4   2.0000      -1.032478       -28.0952
   5   2.0000      -0.935012       -25.4430
   6   2.0000      -0.926063       -25.1994
   7   2.0000      -0.875817       -23.8322
   8   2.0000      -0.863084       -23.4857
   9   2.0000      -0.782225       -21.2854
  10   2.0000      -0.766234       -20.8503
  11   2.0000      -0.716014       -19.4837
  12   2.0000      -0.694219       -18.8907
  13   2.0000      -0.676071       -18.3968
  14   2.0000      -0.643080       -17.4991
  15   2.0000      -0.626547       -17.0492
  16   2.0000      -0.612300       -16.6615
  17   2.0000      -0.609568       -16.5872
  18   2.0000      -0.601140       -16.3578
  19   2.0000      -0.593388       -16.1469
  20   2.0000      -0.576813       -15.6959
  21   2.0000      -0.568256       -15.4630
  22   2.0000      -0.545128       -14.8337
  23   2.0000      -0.540792       -14.7157
  24   2.0000      -0.531854       -14.4725
  25   2.0000      -0.510676       -13.8962
  26   2.0000      -0.497864       -13.5476
  27   2.0000      -0.492887       -13.4121
  28   2.0000      -0.479766       -13.0551
  29   2.0000      -0.478674       -13.0254
  30   2.0000      -0.466079       -12.6827
  31   2.0000      -0.429284       -11.6814
  32   2.0000      -0.413469       -11.2511
  33   2.0000      -0.404085       -10.9957
  34   2.0000      -0.398181       -10.8351
  35   2.0000      -0.369490       -10.0543
  36   2.0000      -0.363886        -9.9018
  37   0.0000       0.016388         0.4460
  38   0.0000       0.044655         1.2151
  39   0.0000       0.080095         2.1795
  40   0.0000       0.088807         2.4166
  41   0.0000       0.099635         2.7112

MULLIKEN ATOMIC CHARGES
-----------------------
   0 C :    0.119483
   1 O :   -0.265051
   2 C :    0.271591
   3 O :   -0.314568
   4 C :   -0.070814
   5 C :    0.046092
   6 C :    0.010405
   7 C :    0.007067
   8 C :    0.054434
   9 C :   -0.063415
  10 C :    0.271326
  11 O :   -0.319567
  12 O :   -0.287452
  13 C :    0.120051
  14 H :    0.054928
  15 H :    0.049952
  16 H :    0.047841
  17 H :    0.031659
  18 H :    0.025476
  19 H :    0.024638
  20 H :    0.031641
  21 H :    0.051106
  22 H :    0.050582
  23 H :    0.052594
Sum of atomic charges:   -0.0000000

LOEWDIN ATOMIC CHARGES
----------------------
   0 C :   -0.034319
   1 O :   -0.003312
   2 C :   -0.050708
   3 O :   -0.124506
   4 C :   -0.003472
   5 C :   -0.010329
   6 C :   -0.027367
   7 C :   -0.035029
   8 C :   -0.011635
   9 C :   -0.023221
  10 C :   -0.046553
  11 O :   -0.124375
  12 O :   -0.009257
  13 C :   -0.034280
  14 H :    0.054437
  15 H :    0.051293
  16 H :    0.054189
  17 H :    0.058321
  18 H :    0.052459
  19 H :    0.051193
  20 H :    0.054070
  21 H :    0.053625
  22 H :    0.055576
  23 H :    0.053200

  Mayer bond orders larger than 0.100000
B(  0-C ,  1-O ) :   0.8996 B(  0-C , 14-H ) :   0.9901 B(  0-C , 15-H ) :   0.9943
B(  0-C , 16-H ) :   1.0028 B(  1-O ,  2-C ) :   1.1551 B(  2-C ,  3-O ) :   1.9310
B(  2-C ,  4-C ) :   1.0524 B(  4-C ,  5-C ) :   1.4540 B(  4-C ,  9-C ) :   1.4245
B(  5-C ,  6-C ) :   1.4295 B(  5-C , 17-H ) :   0.9823 B(  6-C ,  7-C ) :   1.4421
B(  6-C , 18-H ) :   0.9906 B(  7-C ,  8-C ) :   1.4379 B(  7-C , 19-H ) :   0.9899
B(  8-C ,  9-C ) :   1.4326 B(  8-C , 20-H ) :   0.9797 B(  9-C , 10-C ) :   1.0711
B( 10-C , 11-O ) :   1.9186 B( 10-C , 12-O ) :   1.1434 B( 12-O , 13-C ) :   0.9019
B( 13-C , 21-H ) :   0.9927 B( 13-C , 22-H ) :   1.0013 B( 13-C , 23-H ) :   0.9915

Dispersion correction           -0.031814512
FINAL SINGLE POINT ENERGY      -127.224538121385

DIPOLE MOMENT
-------------

Method             : SCF
Type of density    : Electron Density
Multiplicity       :   1
Irrep              :   0
Energy             :  -127.1927236097979801 Eh
Relativity type    :
Basis              : AO
                                X                 Y                 Z
Electronic contribution:      1.130195456     -10.130660486       0.181660049
Nuclear contribution   :     -2.255135568      10.126726296      -0.984531199
                        -----------------------------------------
Total Dipole Moment    :     -1.124940112      -0.003934191      -0.802871151
                        -----------------------------------------
Magnitude (a.u.)       :      1.382066503
Magnitude (Debye)      :      3.512933873

VIBRATIONAL FREQUENCIES
-----------------------

Scaling factor for frequencies =  1.000000000  (already applied!)

     0:       0.00 cm**-1
     1:       0.00 cm**-1
     2:       0.00 cm**-1
     3:       0.00 cm**-1
     4:       0.00 cm**-1
     5:       0.00 cm**-1
     6:      26.29 cm**-1
     7:      77.21 cm**-1
     8:      85.47 cm**-1
     9:      96.51 cm**-1
    10:     128.47 cm**-1
    11:     144.97 cm**-1
    12:     154.68 cm**-1
    13:     168.45 cm**-1
    14:     219.42 cm**-1
    15:     257.15 cm**-1
    16:     293.98 cm**-1
    17:     315.87 cm**-1
    18:     344.66 cm**-1
    19:     379.62 cm**-1
    20:     406.06 cm**-1
    21:     431.47 cm**-1
    22:     550.49 cm**-1
    23:     576.70 cm**-1
    24:     679.65 cm**-1
    25:     722.73 cm**-1
    26:     735.50 cm**-1
    27:     770.60 cm**-1
    28:     822.12 cm**-1
    29:     838.12 cm**-1
    30:     857.97 cm**-1
    31:     876.24 cm**-1
    32:     929.45 cm**-1
    33:    1006.09 cm**-1
    34:    1035.59 cm**-1
    35:    1037.28 cm**-1
    36:    1040.43 cm**-1
    37:    1098.01 cm**-1
    38:    1140.87 cm**-1
    39:    1192.09 cm**-1
    40:    1198.99 cm**-1
    41:    1203.38 cm**-1
    42:    1206.50 cm**-1
    43:    1207.75 cm**-1
    44:    1248.54 cm**-1
    45:    1254.97 cm**-1
    46:    1324.08 cm**-1
    47:    1346.13 cm**-1
    48:    1368.75 cm**-1
    49:    1378.63 cm**-1
    50:    1503.81 cm**-1
    51:    1507.28 cm**-1
    52:    1516.72 cm**-1
    53:    1517.46 cm**-1
    54:    1523.69 cm**-1
    55:    1526.45 cm**-1
    56:    1528.99 cm**-1
    57:    1576.06 cm**-1
    58:    1694.95 cm**-1
    59:    1719.37 cm**-1
    60:    1865.38 cm**-1
    61:    1874.12 cm**-1
    62:    3130.09 cm**-1
    63:    3132.16 cm**-1
    64:    3233.45 cm**-1
    65:    3234.95 cm**-1
    66:    3257.76 cm**-1
    67:    3258.43 cm**-1
    68:    3259.80 cm**-1
    69:    3270.79 cm**-1
    70:    3281.00 cm**-1
    71:    3291.13 cm**-1

IR SPECTRUM
-----------

 Mode   freq       eps      Int      T**2         TX        TY        TZ
       cm**-1   L/(mol*cm) km/mol    a.u.
----------------------------------------------------------------------------
  6:     26.29   0.000123    0.62  0.001465  (-0.013156  0.035867 -0.002311)
  7:     77.21   0.000172    0.87  0.000695  ( 0.002581 -0.008932  0.024665)
  8:     85.47   0.000917    4.63  0.003347  ( 0.024252 -0.005122 -0.052271)
  9:     96.51   0.000608    3.08  0.001967  (-0.026853 -0.008696  0.034216)
 10:    128.47   0.000288    1.45  0.000699  (-0.014513  0.002115 -0.021988)
 11:    144.97   0.000348    1.76  0.000750  ( 0.023554  0.003583  0.013505)
 12:    154.68   0.000238    1.20  0.000481  ( 0.018626  0.011340  0.002350)
 13:    168.45   0.000082    0.41  0.000151  ( 0.008713  0.008138  0.003053)
 14:    219.42   0.000177    0.90  0.000252  (-0.005480  0.010754 -0.010308)
 15:    257.15   0.000339    1.72  0.000412  (-0.002304  0.011142  0.016806)
 16:    293.98   0.001703    8.61  0.001808  (-0.018036 -0.026949  0.027508)
 17:    315.87   0.000686    3.47  0.000678  (-0.020556  0.014763 -0.006120)
 18:    344.66   0.003318   16.77  0.003004  (-0.030229  0.045709 -0.000913)
 19:    379.62   0.002417   12.21  0.001987  (-0.043820 -0.003826  0.007212)
 20:    406.06   0.000183    0.92  0.000140  ( 0.009738  0.003007 -0.006050)
 21:    431.47   0.000170    0.86  0.000123  (-0.003012 -0.009815 -0.004218)
 22:    550.49   0.000559    2.82  0.000317  ( 0.005293  0.016918 -0.001625)
 23:    576.70   0.001327    6.71  0.000718  ( 0.009719  0.017752 -0.017568)
 24:    679.65   0.001140    5.76  0.000524  (-0.000034  0.022824 -0.001642)
 25:    722.73   0.001689    8.54  0.000729  (-0.026296  0.002710  0.005528)
 26:    735.50   0.002180   11.02  0.000925  (-0.008084 -0.007479  0.028349)
 27:    770.60   0.017588   88.88  0.007123  (-0.008442 -0.017720  0.082081)
 28:    822.12   0.003378   17.07  0.001282  ( 0.031312 -0.008473  0.015171)
 29:    838.12   0.001143    5.78  0.000426  (-0.000774 -0.020158 -0.004313)
 30:    857.97   0.003255   16.45  0.001184  (-0.016615 -0.024061 -0.018137)
 31:    876.24   0.000562    2.84  0.000200  (-0.010901  0.007433  0.005098)
 32:    929.45   0.000098    0.50  0.000033  (-0.002805  0.000241 -0.005009)
 33:   1006.09   0.000614    3.10  0.000190  (-0.008017 -0.000335 -0.011222)
 34:   1035.59   0.000417    2.11  0.000126  (-0.004664 -0.009649 -0.003279)
 35:   1037.28   0.001260    6.37  0.000379  (-0.008751 -0.015006 -0.008786)
 36:   1040.43   0.002832   14.31  0.000849  ( 0.018062  0.013356  0.018566)
 37:   1098.01   0.003051   15.42  0.000867  ( 0.011215  0.026971  0.003727)
 38:   1140.87   0.009943   50.25  0.002720  ( 0.050525 -0.008983 -0.009286)
 39:   1192.09   0.010682   53.98  0.002796  (-0.037538 -0.030144  0.021878)
 40:   1198.99   0.008904   45.00  0.002318  ( 0.007860 -0.047196  0.005321)
 41:   1203.38   0.006817   34.45  0.001768  ( 0.018241 -0.037801  0.002450)
 42:   1206.50   0.002335   11.80  0.000604  ( 0.005654 -0.023808 -0.002283)
 43:   1207.75   0.000686    3.47  0.000177  ( 0.004285 -0.011892  0.004194)
 44:   1248.54   0.002693   13.61  0.000673  ( 0.025026 -0.000503 -0.006823)
 45:   1254.97   0.011058   55.88  0.002750  ( 0.019019 -0.045895  0.016782)
 46:   1324.08   0.011339   57.30  0.002672  (-0.034208 -0.034545  0.017577)
 47:   1346.13   0.016324   82.49  0.003784  (-0.056727  0.023629  0.002817)
 48:   1368.75   0.059173  299.04  0.013491  ( 0.104965 -0.043774 -0.023606)
 49:   1378.63   0.099963  505.17  0.022627  (-0.005517  0.145663 -0.037138)
 50:   1503.81   0.004769   24.10  0.000990  (-0.023619 -0.020479  0.003525)
 51:   1507.28   0.007867   39.76  0.001629  (-0.019528  0.034303  0.008411)
 52:   1516.72   0.000861    4.35  0.000177  (-0.003392  0.012389  0.003487)
 53:   1517.46   0.003895   19.69  0.000801  ( 0.012179  0.005531 -0.024943)
 54:   1523.69   0.003166   16.00  0.000648  ( 0.018387  0.017052 -0.004428)
 55:   1526.45   0.003740   18.90  0.000765  (-0.009728  0.019678 -0.016816)
 56:   1528.99   0.002301   11.63  0.000470  ( 0.019496 -0.005678  0.007570)
 57:   1576.06   0.006673   33.72  0.001321  (-0.018475  0.029782 -0.009639)
 58:   1694.95   0.003367   17.02  0.000620  ( 0.011051 -0.022308  0.000479)
 59:   1719.37   0.001376    6.95  0.000250  ( 0.015584  0.002257 -0.001346)
 60:   1865.38   0.052359  264.60  0.008759  (-0.054778 -0.058590 -0.048227)
 61:   1874.12   0.069850  352.99  0.011631  (-0.082697  0.012469 -0.068092)
 62:   3130.09   0.006223   31.45  0.000620  (-0.014448 -0.019802  0.004420)
 63:   3132.16   0.006487   32.78  0.000646  ( 0.014847 -0.020191 -0.004268)
 64:   3233.45   0.001076    5.44  0.000104  (-0.006781  0.002170  0.007293)
 65:   3234.95   0.001191    6.02  0.000115  ( 0.003296  0.005039 -0.008870)
 66:   3257.76   0.000161    0.82  0.000015  (-0.003643  0.001445 -0.000307)
 67:   3258.43   0.000779    3.94  0.000075  (-0.001952  0.006585 -0.005237)
 68:   3259.80   0.000735    3.72  0.000070  ( 0.007859 -0.001475  0.002541)
 69:   3270.79   0.000551    2.78  0.000053  (-0.003447 -0.006279 -0.001104)
 70:   3281.00   0.000640    3.23  0.000061  (-0.001481  0.007310  0.002290)
 71:   3291.13   0.000477    2.41  0.000045  ( 0.003070  0.005950  0.000618)

--------------------------
THERMOCHEMISTRY AT 298.15K
--------------------------

Temperature         ...   298.15 K
Pressure            ...     1.00 atm
Total Mass          ...   194.19 AMU
Quasi RRHO          ...     True
Cut-Off Frequency   ...     1.00 cm^-1

Throughout the following assumptions are being made:
  (1) The electronic state is orbitally nondegenerate
  (2) There are no thermally accessible electronically excited states
  (3) Hindered rotations indicated by low frequency modes are not
      treated as such but are treated as vibrations and this may
      cause some error
  (4) All equations used are the standard statistical mechanics
      equations for an ideal gas
  (5) All vibrations are strictly harmonic

freq.      26.29  E(vib)   ...       0.56
freq.      77.21  E(vib)   ...       0.49
freq.      85.47  E(vib)   ...       0.48
freq.      96.51  E(vib)   ...       0.47
freq.     128.47  E(vib)   ...       0.43
freq.     144.97  E(vib)   ...       0.41
freq.     154.68  E(vib)   ...       0.40
freq.     168.45  E(vib)   ...       0.38
freq.     219.42  E(vib)   ...       0.33
freq.     257.15  E(vib)   ...       0.30
freq.     293.98  E(vib)   ...       0.27
freq.     315.87  E(vib)   ...       0.25
freq.     344.66  E(vib)   ...       0.23
freq.     379.62  E(vib)   ...       0.21
freq.     406.06  E(vib)   ...       0.19
freq.     431.47  E(vib)   ...       0.18
freq.     550.49  E(vib)   ...       0.12
freq.     576.70  E(vib)   ...       0.11
freq.     679.65  E(vib)   ...       0.08
freq.     722.73  E(vib)   ...       0.07
freq.     735.50  E(vib)   ...       0.06
freq.     770.60  E(vib)   ...       0.05
freq.     822.12  E(vib)   ...       0.05
freq.     838.12  E(vib)   ...       0.04
freq.     857.97  E(vib)   ...       0.04
freq.     876.24  E(vib)   ...       0.04
freq.     929.45  E(vib)   ...       0.03
freq.    1006.09  E(vib)   ...       0.02
freq.    1035.59  E(vib)   ...       0.02
freq.    1037.28  E(vib)   ...       0.02
freq.    1040.43  E(vib)   ...       0.02
freq.    1098.01  E(vib)   ...       0.02
freq.    1140.87  E(vib)   ...       0.01
freq.    1192.09  E(vib)   ...       0.01
freq.    1198.99  E(vib)   ...       0.01
freq.    1203.38  E(vib)   ...       0.01
freq.    1206.50  E(vib)   ...       0.01
freq.    1207.75  E(vib)   ...       0.01
freq.    1248.54  E(vib)   ...       0.01
freq.    1254.97  E(vib)   ...       0.01
freq.    1324.08  E(vib)   ...       0.01
freq.    1346.13  E(vib)   ...       0.01
freq.    1368.75  E(vib)   ...       0.01
freq.    1378.63  E(vib)   ...       0.01
freq.    1503.81  E(vib)   ...       0.00
freq.    1507.28  E(vib)   ...       0.00
freq.    1516.72  E(vib)   ...       0.00
freq.    1517.46  E(vib)   ...       0.00
freq.    1523.69  E(vib)   ...       0.00
freq.    1526.45  E(vib)   ...       0.00
freq.    1528.99  E(vib)   ...       0.00
freq.    1576.06  E(vib)   ...       0.00
freq.    1694.95  E(vib)   ...       0.00
freq.    1719.37  E(vib)   ...       0.00
freq.    1865.38  E(vib)   ...       0.00
freq.    1874.12  E(vib)   ...       0.00
freq.    3130.09  E(vib)   ...       0.00
freq.    3132.16  E(vib)   ...       0.00
freq.    3233.45  E(vib)   ...       0.00
freq.    3234.95  E(vib)   ...       0.00
freq.    3257.76  E(vib)   ...       0.00
freq.    3258.43  E(vib)   ...       0.00
freq.    3259.80  E(vib)   ...       0.00
freq.    3270.79  E(vib)   ...       0.00
freq.    3281.00  E(vib)   ...       0.00
freq.    3291.13  E(vib)   ...       0.00

------------
INNER ENERGY
------------

The inner energy is: U= E(el) + E(ZPE) + E(vib) + E(rot) + E(trans)
    E(el)   - is the total energy from the electronic structure calculation
              = E(kin-el) + E(nuc-el) + E(el-el) + E(nuc-nuc)
    E(ZPE)  - the the zero temperature vibrational energy from the frequency calculation
    E(vib)  - the the finite temperature correction to E(ZPE) due to population
              of excited vibrational states
    E(rot)  - is the rotational thermal energy
    E(trans)- is the translational thermal energy

Summary of contributions to the inner energy U:
Electronic energy                ...   -127.22453812 Eh
Zero point energy                ...      0.19109684 Eh     119.91 kcal/mol
Thermal vibrational correction   ...      0.01031734 Eh       6.47 kcal/mol
Thermal rotational correction    ...      0.00141627 Eh       0.89 kcal/mol
Thermal translational correction ...      0.00141627 Eh       0.89 kcal/mol
-----------------------------------------------------------------------
Total thermal energy                   -127.02029139 Eh

Summary of corrections to the electronic energy:
(perhaps to be used in another calculation)
Total thermal correction                  0.01314989 Eh       8.25 kcal/mol
Non-thermal (ZPE) correction              0.19109684 Eh     119.91 kcal/mol
-----------------------------------------------------------------------
Total correction                          0.20424673 Eh     128.17 kcal/mol

--------
ENTHALPY
--------

The enthalpy is H = U + kB*T
                kB is Boltzmann's constant
Total thermal energy              ...   -127.02029139 Eh
Thermal Enthalpy correction       ...      0.00094421 Eh       0.59 kcal/mol
-----------------------------------------------------------------------
Total Enthalpy                    ...   -127.01934719 Eh

Note: Only C1 symmetry has been detected, increase convergence thresholds
      if your molecule has a higher symmetry. Symmetry factor of 1.0 is
      used for the rotational entropy correction.

Note: Rotational entropy computed according to Herzberg
Infrared and Raman Spectra, Chapter V,1, Van Nostrand Reinhold, 1945
Point Group:  C1, Symmetry Number:   1
Rotational constants in cm-1:     0.025483     0.024845     0.013673

Vibrational entropy computed according to the QRRHO of S. Grimme
Chem.Eur.J. 2012 18 9955 using a reference frequency of 100.0 cm-1

-------
ENTROPY
-------

The entropy contributions are T*S = T*(S(el)+S(vib)+S(rot)+S(trans))
     S(el)   - electronic entropy
     S(vib)  - vibrational entropy
     S(rot)  - rotational entropy
     S(trans)- translational entropy
The entropies will be listed as multiplied by the temperature to get
units of energy

Electronic entropy                ...      0.00000000 Eh      0.00 kcal/mol
Vibrational entropy               ...      0.01849021 Eh     11.60 kcal/mol
Rotational entropy                ...      0.01501406 Eh      9.42 kcal/mol
Translational entropy             ...      0.01981115 Eh     12.43 kcal/mol
-----------------------------------------------------------------------
Final entropy term                ...      0.05331541 Eh     33.46 kcal/mol

                             ****ORCA TERMINATED NORMALLY****
TOTAL RUN TIME: 0 days 0 hours 17 minutes 59 seconds 666 msec
