                         Program Version 6.0.1  -  RELEASE   -
|  1> ! wB97X-3c OPT FREQ TightSCF
|  2> %pal
|  3>   nprocs 40
|  4> end
|  5> * xyz 0 1
|  6> C      2.573048    -1.251526    -0.319929
|  7> C      2.279799     0.038300    -0.507347
|  8> C      1.509817     0.833297     0.507641
|  9> S     -0.070830     1.402993    -0.205054
| 10> C     -0.923482    -0.207344    -0.069841
| 11> C     -2.336836    -0.083759    -0.555864
| 12> C     -3.249360     0.622945     0.117155
| 13> H      3.125181    -1.797267    -1.078045
| 14> H      2.264969    -1.772969     0.581171
| 15> H      2.594990     0.525367    -1.425354
| 16> H      2.109448     1.726580     0.779188
| 17> H      1.327568     0.256060     1.440078
| 18> H     -0.394204    -0.956159    -0.695451
| 19> H     -0.921471    -0.557809     0.984561
| 20> H     -2.631910    -0.604473    -1.462099
| 21> H     -2.988368     1.141419     1.034940
| 22> H     -4.268358     0.684344    -0.250740
| 23> *
| 24>
| 25>                          ****END OF INPUT****
 Total Charge           Charge          ....    0
 Multiplicity           Mult            ....    1
 Number of Electrons    NEL             ....   40
Dispersion correction           -0.017713920
FINAL SINGLE POINT ENERGY       -50.372135097155
Dispersion correction             ... done (  0.1 sec)
Dispersion correction           -0.017709260
FINAL SINGLE POINT ENERGY       -50.375806041290
Dispersion correction             ... done (  0.1 sec)
Dispersion correction           -0.017580745
FINAL SINGLE POINT ENERGY       -50.376556998451
Dispersion correction             ... done (  0.1 sec)
FINAL SINGLE POINT ENERGY       -50.376992253673
FINAL SINGLE POINT ENERGY       -50.377596549779
FINAL SINGLE POINT ENERGY       -50.378626442379
FINAL SINGLE POINT ENERGY       -50.378946850976
FINAL SINGLE POINT ENERGY       -50.379148932501
FINAL SINGLE POINT ENERGY       -50.379173499769
Dispersion correction             ... done (  0.1 sec)
Dispersion correction           -0.017415523
FINAL SINGLE POINT ENERGY       -50.379178546057
Dispersion correction             ... done (  0.1 sec)
Dispersion correction           -0.017409497
FINAL SINGLE POINT ENERGY       -50.379180087558
Dispersion correction             ... done (  0.1 sec)
                    ***********************HURRAY********************

CARTESIAN COORDINATES (ANGSTROEM)
---------------------------------
  C      2.478293   -1.365217   -0.314831
  C      2.237435   -0.090321   -0.577158
  C      1.694030    0.878149    0.413255
  S      0.065977    1.528723   -0.055129
  C     -0.932368    0.025407    0.137374
  C     -2.234614    0.200807   -0.563574
  C     -3.405085    0.258889    0.049890
  H      2.866750   -2.033627   -1.071522
  H      2.301507   -1.781069    0.670185
  H      2.414014    0.299429   -1.573974
  H      2.331150    1.759917    0.478650
  H      1.638724    0.438067    1.408385
  H     -0.376349   -0.802023   -0.302788
  H     -1.086926   -0.178546    1.195912
  H     -2.185690    0.295929   -1.643041
  H     -3.481500    0.181185    1.127706
  H     -4.325348    0.384298   -0.504331

 Multiplicity           Mult            ....    1
 Number of Electrons    NEL             ....   40
 Basis Dimension        Dim             ....  141

ORBITAL ENERGIES
----------------

  NO   OCC          E(Eh)            E(eV)
   0   2.0000      -0.976785       -26.5797
   1   2.0000      -0.941422       -25.6174
   2   2.0000      -0.888145       -24.1677
   3   2.0000      -0.829575       -22.5739
   4   2.0000      -0.747032       -20.3278
   5   2.0000      -0.689600       -18.7650
   6   2.0000      -0.685967       -18.6661
   7   2.0000      -0.607510       -16.5312
   8   2.0000      -0.591857       -16.1053
   9   2.0000      -0.562840       -15.3156
  10   2.0000      -0.553463       -15.0605
  11   2.0000      -0.534363       -14.5408
  12   2.0000      -0.518829       -14.1180
  13   2.0000      -0.483516       -13.1571
  14   2.0000      -0.470584       -12.8052
  15   2.0000      -0.458245       -12.4695
  16   2.0000      -0.426196       -11.5974
  17   2.0000      -0.378618       -10.3027
  18   2.0000      -0.361370        -9.8334
  19   2.0000      -0.324481        -8.8296
  20   0.0000       0.073499         2.0000
  21   0.0000       0.086449         2.3524
  22   0.0000       0.091362         2.4861
  23   0.0000       0.093936         2.5561
  24   0.0000       0.096727         2.6321

MULLIKEN ATOMIC CHARGES
-----------------------
   0 C :   -0.045243
   1 C :   -0.025882
   2 C :   -0.124961
   3 S :   -0.011727
   4 C :   -0.116918
   5 C :   -0.038705
   6 C :   -0.021889
   7 H :    0.032817
   8 H :    0.026854
   9 H :    0.022233
  10 H :    0.070223
  11 H :    0.040467
  12 H :    0.070413
  13 H :    0.045577
  14 H :    0.023710
  15 H :    0.023248
  16 H :    0.029783
Sum of atomic charges:   -0.0000000

LOEWDIN ATOMIC CHARGES
----------------------
   0 C :   -0.073342
   1 C :   -0.072051
   2 C :   -0.240534
   3 S :    0.380429
   4 C :   -0.229885
   5 C :   -0.075873
   6 C :   -0.066457
   7 H :    0.038119
   8 H :    0.033781
   9 H :    0.044036
  10 H :    0.044207
  11 H :    0.034721
  12 H :    0.032852
  13 H :    0.030588
  14 H :    0.043871
  15 H :    0.036140
  16 H :    0.039399

  Mayer bond orders larger than 0.100000
B(  0-C ,  1-C ) :   1.9258 B(  0-C ,  7-H ) :   0.9975 B(  0-C ,  8-H ) :   0.9961
B(  1-C ,  2-C ) :   1.0300 B(  1-C ,  9-H ) :   1.0020 B(  2-C ,  3-S ) :   0.9740
B(  2-C , 10-H ) :   0.9933 B(  2-C , 11-H ) :   0.9966 B(  3-S ,  4-C ) :   0.9598
B(  4-C ,  5-C ) :   1.0446 B(  4-C , 12-H ) :   0.9829 B(  4-C , 13-H ) :   0.9970
B(  5-C ,  6-C ) :   1.9283 B(  5-C , 14-H ) :   1.0017 B(  6-C , 15-H ) :   0.9991
B(  6-C , 16-H ) :   0.9973

Dispersion correction           -0.017407858
FINAL SINGLE POINT ENERGY       -50.379180254391

DIPOLE MOMENT
-------------

Method             : SCF
Type of density    : Electron Density
Multiplicity       :   1
Irrep              :   0
Energy             :   -50.3617723964367272 Eh
Relativity type    :
Basis              : AO
                                X                 Y                 Z
Electronic contribution:      0.681740223      16.310194228      -0.451646076
Nuclear contribution   :     -0.470719544     -16.825481250       0.616223522
                        -----------------------------------------
Total Dipole Moment    :      0.211020680      -0.515287023       0.164577446
                        -----------------------------------------
Magnitude (a.u.)       :      0.580634290
Magnitude (Debye)      :      1.475855077

VIBRATIONAL FREQUENCIES
-----------------------

Scaling factor for frequencies =  1.000000000  (already applied!)

     0:       0.00 cm**-1
     1:       0.00 cm**-1
     2:       0.00 cm**-1
     3:       0.00 cm**-1
     4:       0.00 cm**-1
     5:       0.00 cm**-1
     6:      48.05 cm**-1
     7:      67.41 cm**-1
     8:      92.54 cm**-1
     9:     118.59 cm**-1
    10:     201.99 cm**-1
    11:     285.63 cm**-1
    12:     337.89 cm**-1
    13:     420.50 cm**-1
    14:     429.11 cm**-1
    15:     610.85 cm**-1
    16:     634.76 cm**-1
    17:     790.04 cm**-1
    18:     815.31 cm**-1
    19:     902.67 cm**-1
    20:     923.87 cm**-1
    21:     966.63 cm**-1
    22:     970.82 cm**-1
    23:     974.34 cm**-1
    24:     989.43 cm**-1
    25:    1045.74 cm**-1
    26:    1046.58 cm**-1
    27:    1115.37 cm**-1
    28:    1130.98 cm**-1
    29:    1254.91 cm**-1
    30:    1261.47 cm**-1
    31:    1295.31 cm**-1
    32:    1300.81 cm**-1
    33:    1347.88 cm**-1
    34:    1349.85 cm**-1
    35:    1467.97 cm**-1
    36:    1472.74 cm**-1
    37:    1501.40 cm**-1
    38:    1519.47 cm**-1
    39:    1763.88 cm**-1
    40:    1769.52 cm**-1
    41:    3120.13 cm**-1
    42:    3124.20 cm**-1
    43:    3187.22 cm**-1
    44:    3189.82 cm**-1
    45:    3205.80 cm**-1
    46:    3209.68 cm**-1
    47:    3231.76 cm**-1
    48:    3231.85 cm**-1
    49:    3306.61 cm**-1
    50:    3310.28 cm**-1

IR SPECTRUM
-----------

 Mode   freq       eps      Int      T**2         TX        TY        TZ
       cm**-1   L/(mol*cm) km/mol    a.u.
----------------------------------------------------------------------------
  6:     48.05   0.000027    0.14  0.000178  (-0.012650 -0.001635 -0.003971)
  7:     67.41   0.000045    0.23  0.000207  (-0.002822  0.011423  0.008252)
  8:     92.54   0.000170    0.86  0.000573  ( 0.009728 -0.015743 -0.015197)
  9:    118.59   0.000350    1.77  0.000921  (-0.015417 -0.001477  0.026099)
 10:    201.99   0.000028    0.14  0.000043  ( 0.002496  0.005532 -0.002519)
 11:    285.63   0.000453    2.29  0.000495  ( 0.006999 -0.018037 -0.010988)
 12:    337.89   0.000621    3.14  0.000574  (-0.023492 -0.003614  0.002955)
 13:    420.50   0.000103    0.52  0.000076  ( 0.001403  0.008581  0.000761)
 14:    429.11   0.000329    1.66  0.000239  ( 0.015308 -0.000158 -0.002225)
 15:    610.85   0.000656    3.31  0.000335  (-0.013221  0.011969  0.004119)
 16:    634.76   0.002416   12.21  0.001188  ( 0.020771  0.026615  0.006944)
 17:    790.04   0.001555    7.86  0.000614  (-0.021436  0.012340 -0.001545)
 18:    815.31   0.001934    9.77  0.000740  ( 0.019484  0.018975  0.000755)
 19:    902.67   0.000939    4.74  0.000325  (-0.002591  0.007849 -0.016008)
 20:    923.87   0.001426    7.21  0.000482  ( 0.021628  0.002200 -0.003004)
 21:    966.63   0.009121   46.09  0.002945  ( 0.051754  0.007515  0.014479)
 22:    970.82   0.009514   48.08  0.003058  (-0.012836 -0.053475 -0.005807)
 23:    974.34   0.000892    4.51  0.000286  (-0.013293  0.008710  0.005755)
 24:    989.43   0.000601    3.04  0.000189  (-0.002002 -0.013593  0.000823)
 25:   1045.74   0.002349   11.87  0.000701  ( 0.004935  0.025838  0.003006)
 26:   1046.58   0.003050   15.41  0.000909  ( 0.028178  0.007904  0.007277)
 27:   1115.37   0.000537    2.71  0.000150  (-0.010753 -0.004681 -0.003549)
 28:   1130.98   0.000170    0.86  0.000047  (-0.004106  0.003803  0.003935)
 29:   1254.91   0.001421    7.18  0.000353  ( 0.018575 -0.002835 -0.000544)
 30:   1261.47   0.000541    2.73  0.000134  ( 0.011524 -0.000597  0.000804)
 31:   1295.31   0.002615   13.22  0.000630  ( 0.024439 -0.002565  0.005113)
 32:   1300.81   0.001942    9.81  0.000466  (-0.007935 -0.018575  0.007606)
 33:   1347.88   0.000051    0.26  0.000012  ( 0.003016  0.000437 -0.001553)
 34:   1349.85   0.000103    0.52  0.000024  (-0.001147  0.002190  0.004216)
 35:   1467.97   0.000897    4.53  0.000191  ( 0.001179  0.013194  0.003911)
 36:   1472.74   0.001108    5.60  0.000235  ( 0.012546  0.000521 -0.008784)
 37:   1501.40   0.002989   15.11  0.000621  (-0.010690  0.007023 -0.021395)
 38:   1519.47   0.000511    2.58  0.000105  ( 0.001803 -0.005995  0.008108)
 39:   1763.88   0.002527   12.77  0.000447  (-0.007646  0.019712  0.000246)
 40:   1769.52   0.002919   14.75  0.000515  (-0.022345  0.000021  0.003928)
 41:   3120.13   0.002529   12.78  0.000253  (-0.004456 -0.011780  0.009714)
 42:   3124.20   0.002550   12.89  0.000255  ( 0.009658  0.004228  0.011982)
 43:   3187.22   0.000885    4.47  0.000087  ( 0.003603 -0.003712  0.007739)
 44:   3189.82   0.000002    0.01  0.000000  (-0.000096 -0.000265 -0.000329)
 45:   3205.80   0.001114    5.63  0.000108  ( 0.001671 -0.007983  0.006479)
 46:   3209.68   0.001133    5.72  0.000110  (-0.006503 -0.000275  0.008232)
 47:   3231.76   0.000592    2.99  0.000057  (-0.006214 -0.001293 -0.004108)
 48:   3231.85   0.001074    5.43  0.000104  ( 0.002155  0.001399 -0.009855)
 49:   3306.61   0.000685    3.46  0.000065  ( 0.003020 -0.001148 -0.007361)
 50:   3310.28   0.000680    3.44  0.000064  ( 0.003995 -0.000854  0.006887)

--------------------------
THERMOCHEMISTRY AT 298.15K
--------------------------

Temperature         ...   298.15 K
Pressure            ...     1.00 atm
Total Mass          ...   114.21 AMU
Quasi RRHO          ...     True
Cut-Off Frequency   ...     1.00 cm^-1

Throughout the following assumptions are being made:
  (1) The electronic state is orbitally nondegenerate
  (2) There are no thermally accessible electronically excited states
  (3) Hindered rotations indicated by low frequency modes are not
      treated as such but are treated as vibrations and this may
      cause some error
  (4) All equations used are the standard statistical mechanics
      equations for an ideal gas
  (5) All vibrations are strictly harmonic

freq.      48.05  E(vib)   ...       0.53
freq.      67.41  E(vib)   ...       0.50
freq.      92.54  E(vib)   ...       0.47
freq.     118.59  E(vib)   ...       0.44
freq.     201.99  E(vib)   ...       0.35
freq.     285.63  E(vib)   ...       0.28
freq.     337.89  E(vib)   ...       0.24
freq.     420.50  E(vib)   ...       0.18
freq.     429.11  E(vib)   ...       0.18
freq.     610.85  E(vib)   ...       0.10
freq.     634.76  E(vib)   ...       0.09
freq.     790.04  E(vib)   ...       0.05
freq.     815.31  E(vib)   ...       0.05
freq.     902.67  E(vib)   ...       0.03
freq.     923.87  E(vib)   ...       0.03
freq.     966.63  E(vib)   ...       0.03
freq.     970.82  E(vib)   ...       0.03
freq.     974.34  E(vib)   ...       0.03
freq.     989.43  E(vib)   ...       0.02
freq.    1045.74  E(vib)   ...       0.02
freq.    1046.58  E(vib)   ...       0.02
freq.    1115.37  E(vib)   ...       0.01
freq.    1130.98  E(vib)   ...       0.01
freq.    1254.91  E(vib)   ...       0.01
freq.    1261.47  E(vib)   ...       0.01
freq.    1295.31  E(vib)   ...       0.01
freq.    1300.81  E(vib)   ...       0.01
freq.    1347.88  E(vib)   ...       0.01
freq.    1349.85  E(vib)   ...       0.01
freq.    1467.97  E(vib)   ...       0.00
freq.    1472.74  E(vib)   ...       0.00
freq.    1501.40  E(vib)   ...       0.00
freq.    1519.47  E(vib)   ...       0.00
freq.    1763.88  E(vib)   ...       0.00
freq.    1769.52  E(vib)   ...       0.00
freq.    3120.13  E(vib)   ...       0.00
freq.    3124.20  E(vib)   ...       0.00
freq.    3187.22  E(vib)   ...       0.00
freq.    3189.82  E(vib)   ...       0.00
freq.    3205.80  E(vib)   ...       0.00
freq.    3209.68  E(vib)   ...       0.00
freq.    3231.76  E(vib)   ...       0.00
freq.    3231.85  E(vib)   ...       0.00
freq.    3306.61  E(vib)   ...       0.00
freq.    3310.28  E(vib)   ...       0.00

------------
INNER ENERGY
------------

The inner energy is: U= E(el) + E(ZPE) + E(vib) + E(rot) + E(trans)
    E(el)   - is the total energy from the electronic structure calculation
              = E(kin-el) + E(nuc-el) + E(el-el) + E(nuc-nuc)
    E(ZPE)  - the the zero temperature vibrational energy from the frequency calculation
    E(vib)  - the the finite temperature correction to E(ZPE) due to population
              of excited vibrational states
    E(rot)  - is the rotational thermal energy
    E(trans)- is the translational thermal energy

Summary of contributions to the inner energy U:
Electronic energy                ...    -50.37918025 Eh
Zero point energy                ...      0.14658110 Eh      91.98 kcal/mol
Thermal vibrational correction   ...      0.00594435 Eh       3.73 kcal/mol
Thermal rotational correction    ...      0.00141627 Eh       0.89 kcal/mol
Thermal translational correction ...      0.00141627 Eh       0.89 kcal/mol
-----------------------------------------------------------------------
Total thermal energy                    -50.22382226 Eh

Summary of corrections to the electronic energy:
(perhaps to be used in another calculation)
Total thermal correction                  0.00877689 Eh       5.51 kcal/mol
Non-thermal (ZPE) correction              0.14658110 Eh      91.98 kcal/mol
-----------------------------------------------------------------------
Total correction                          0.15535800 Eh      97.49 kcal/mol

--------
ENTHALPY
--------

The enthalpy is H = U + kB*T
                kB is Boltzmann's constant
Total thermal energy              ...    -50.22382226 Eh
Thermal Enthalpy correction       ...      0.00094421 Eh       0.59 kcal/mol
-----------------------------------------------------------------------
Total Enthalpy                    ...    -50.22287805 Eh

Note: Only C1 symmetry has been detected, increase convergence thresholds
      if your molecule has a higher symmetry. Symmetry factor of 1.0 is
      used for the rotational entropy correction.

Note: Rotational entropy computed according to Herzberg
Infrared and Raman Spectra, Chapter V,1, Van Nostrand Reinhold, 1945
Point Group:  C1, Symmetry Number:   1
Rotational constants in cm-1:     0.144076     0.035921     0.030879

Vibrational entropy computed according to the QRRHO of S. Grimme
Chem.Eur.J. 2012 18 9955 using a reference frequency of 100.0 cm-1

-------
ENTROPY
-------

The entropy contributions are T*S = T*(S(el)+S(vib)+S(rot)+S(trans))
     S(el)   - electronic entropy
     S(vib)  - vibrational entropy
     S(rot)  - rotational entropy
     S(trans)- translational entropy
The entropies will be listed as multiplied by the temperature to get
units of energy

Electronic entropy                ...      0.00000000 Eh      0.00 kcal/mol
Vibrational entropy               ...      0.01057882 Eh      6.64 kcal/mol
Rotational entropy                ...      0.01363761 Eh      8.56 kcal/mol
Translational entropy             ...      0.01905937 Eh     11.96 kcal/mol
-----------------------------------------------------------------------
Final entropy term                ...      0.04327580 Eh     27.16 kcal/mol

In case the symmetry of your molecule has not been determined correctly
or in case you have a reason to use a different symmetry number we print
out the resulting rotational entropy values for sn=1,12:

 non-linear molecules -----------------------------------
|  sn= 1 | S(rot)=       0.01363761 Eh      8.56 kcal/mol|
|  sn= 2 | S(rot)=       0.01298315 Eh      8.15 kcal/mol|
|  sn= 3 | S(rot)=       0.01260032 Eh      7.91 kcal/mol|
|  sn= 4 | S(rot)=       0.01232869 Eh      7.74 kcal/mol|
|  sn= 5 | S(rot)=       0.01211801 Eh      7.60 kcal/mol|
|  sn= 6 | S(rot)=       0.01194586 Eh      7.50 kcal/mol|
|  sn= 7 | S(rot)=       0.01180032 Eh      7.40 kcal/mol|
|  sn= 8 | S(rot)=       0.01167424 Eh      7.33 kcal/mol|
|  sn= 9 | S(rot)=       0.01156303 Eh      7.26 kcal/mol|
|  sn=10 | S(rot)=       0.01146355 Eh      7.19 kcal/mol|
|  sn=11 | S(rot)=       0.01137356 Eh      7.14 kcal/mol|
|  sn=12 | S(rot)=       0.01129141 Eh      7.09 kcal/mol|
 linear molecules ---------------------------------------
|  Dinfh | S(rot)=       0.00860937 Eh      5.40 kcal/mol|
|  Cinfv | S(rot)=       0.00926382 Eh      5.81 kcal/mol|

                             ****ORCA TERMINATED NORMALLY****
TOTAL RUN TIME: 0 days 0 hours 7 minutes 32 seconds 830 msec
