                         Program Version 6.0.1  -  RELEASE   -
|  1> ! wB97X-3c OPT FREQ TightSCF
|  2> %pal
|  3>   nprocs 40
|  4> end
|  5> * xyz 0 1
|  6> C     -3.068098     0.373943    -0.178073
|  7> C     -1.683999    -0.217019    -0.249299
|  8> C     -1.422103    -1.124703    -1.206265
|  9> C     -0.612264     0.257368     0.725208
| 10> C      0.246762     1.385529     0.112718
| 11> C      1.410659     0.835291    -0.715494
| 12> C      2.309452    -0.058421     0.148389
| 13> C      1.509832    -1.079482     0.925577
| 14> C      0.217884    -0.898705     1.248225
| 15> O      3.236281    -0.710693    -0.678679
| 16> H     -3.806769    -0.425884     0.040780
| 17> H     -3.324143     0.851002    -1.147929
| 18> H     -3.140658     1.146810     0.615350
| 19> H     -0.441831    -1.577969    -1.305962
| 20> H     -2.196016    -1.436013    -1.901780
| 21> H     -1.122971     0.691883     1.612052
| 22> H     -0.379914     2.051741    -0.520085
| 23> H      0.661428     2.012120     0.933556
| 24> H      2.010106     1.683961    -1.110682
| 25> H      1.022820     0.266974    -1.587051
| 26> H      2.846748     0.590716     0.878695
| 27> H      2.028411    -1.944385     1.328919
| 28> H     -0.278217    -1.653717     1.851283
| 29> H      3.976599    -1.020348    -0.093501
| 30> *
| 31>
| 32>                          ****END OF INPUT****
 Total Charge           Charge          ....    0
 Multiplicity           Mult            ....    1
 Number of Electrons    NEL             ....   56
Dispersion correction           -0.028368088
FINAL SINGLE POINT ENERGY       -75.731172127961
Dispersion correction             ... done (  0.1 sec)
Dispersion correction           -0.028652946
FINAL SINGLE POINT ENERGY       -75.739097298434
Dispersion correction             ... done (  0.1 sec)
Dispersion correction           -0.028732698
FINAL SINGLE POINT ENERGY       -75.740740542772
Dispersion correction             ... done (  0.1 sec)
FINAL SINGLE POINT ENERGY       -75.741799128550
FINAL SINGLE POINT ENERGY       -75.741961766465
FINAL SINGLE POINT ENERGY       -75.742266441746
FINAL SINGLE POINT ENERGY       -75.742736985673
FINAL SINGLE POINT ENERGY       -75.743275809802
FINAL SINGLE POINT ENERGY       -75.744016157534
FINAL SINGLE POINT ENERGY       -75.744285572861
FINAL SINGLE POINT ENERGY       -75.744367147544
FINAL SINGLE POINT ENERGY       -75.744386845789
FINAL SINGLE POINT ENERGY       -75.744393026730
FINAL SINGLE POINT ENERGY       -75.744398049794
FINAL SINGLE POINT ENERGY       -75.744402494146
Dispersion correction             ... done (  0.1 sec)
Dispersion correction           -0.028788840
FINAL SINGLE POINT ENERGY       -75.744404704426
Dispersion correction             ... done (  0.1 sec)
Dispersion correction           -0.028788280
FINAL SINGLE POINT ENERGY       -75.744406029097
Dispersion correction             ... done (  0.1 sec)
                    ***********************HURRAY********************

CARTESIAN COORDINATES (ANGSTROEM)
---------------------------------
  C     -2.910375    0.529445   -0.352312
  C     -1.656569   -0.287579   -0.311664
  C     -1.446540   -1.290593   -1.153067
  C     -0.652227    0.123929    0.743215
  C      0.173745    1.335159    0.295078
  C      1.329131    0.918734   -0.592338
  C      2.285694    0.031718    0.169331
  C      1.546160   -1.038870    0.916494
  C      0.245870   -1.000539    1.161600
  O      3.196904   -0.523046   -0.764185
  H     -3.476782    0.401600    0.571378
  H     -3.547450    0.243020   -1.185857
  H     -2.689435    1.593183   -0.443334
  H     -0.545486   -1.887291   -1.112146
  H     -2.175389   -1.541930   -1.912681
  H     -1.230790    0.421871    1.623199
  H     -0.459163    2.053584   -0.224813
  H      0.559348    1.844761    1.181343
  H      1.863984    1.787050   -0.975545
  H      0.960272    0.359852   -1.453343
  H      2.842660    0.643302    0.890973
  H      2.133163   -1.882221    1.265563
  H     -0.222821   -1.824614    1.687190
  H      3.876093   -1.010526   -0.298128

 Multiplicity           Mult            ....    1
 Number of Electrons    NEL             ....   56
 Basis Dimension        Dim             ....  200

ORBITAL ENERGIES
----------------

  NO   OCC          E(Eh)            E(eV)
   0   2.0000      -1.148693       -31.2575
   1   2.0000      -0.993853       -27.0441
   2   2.0000      -0.934680       -25.4339
   3   2.0000      -0.887928       -24.1617
   4   2.0000      -0.862434       -23.4680
   5   2.0000      -0.820283       -22.3210
   6   2.0000      -0.757697       -20.6180
   7   2.0000      -0.736794       -20.0492
   8   2.0000      -0.671919       -18.2838
   9   2.0000      -0.637340       -17.3429
  10   2.0000      -0.631364       -17.1803
  11   2.0000      -0.610222       -16.6050
  12   2.0000      -0.583749       -15.8846
  13   2.0000      -0.560441       -15.2504
  14   2.0000      -0.549146       -14.9430
  15   2.0000      -0.534318       -14.5395
  16   2.0000      -0.519511       -14.1366
  17   2.0000      -0.510478       -13.8908
  18   2.0000      -0.493966       -13.4415
  19   2.0000      -0.482889       -13.1401
  20   2.0000      -0.475541       -12.9401
  21   2.0000      -0.454701       -12.3730
  22   2.0000      -0.441712       -12.0196
  23   2.0000      -0.430948       -11.7267
  24   2.0000      -0.416462       -11.3325
  25   2.0000      -0.383587       -10.4379
  26   2.0000      -0.357629        -9.7316
  27   2.0000      -0.346071        -9.4171
  28   0.0000       0.076955         2.0941
  29   0.0000       0.083330         2.2675
  30   0.0000       0.094167         2.5624
  31   0.0000       0.098131         2.6703
  32   0.0000       0.107231         2.9179

MULLIKEN ATOMIC CHARGES
-----------------------
   0 C :   -0.043218
   1 C :   -0.078085
   2 C :   -0.018996
   3 C :   -0.130885
   4 C :   -0.021330
   5 C :   -0.004562
   6 C :    0.040010
   7 C :    0.017588
   8 C :   -0.025067
   9 O :   -0.297633
  10 H :    0.041102
  11 H :    0.030514
  12 H :    0.029273
  13 H :    0.037975
  14 H :    0.018399
  15 H :    0.045576
  16 H :    0.030443
  17 H :    0.031800
  18 H :    0.039033
  19 H :    0.044273
  20 H :    0.032471
  21 H :    0.012683
  22 H :    0.025329
  23 H :    0.143306
Sum of atomic charges:   -0.0000000

LOEWDIN ATOMIC CHARGES
----------------------
   0 C :   -0.105957
   1 C :   -0.044786
   2 C :   -0.073395
   3 C :   -0.072078
   4 C :   -0.065536
   5 C :   -0.065555
   6 C :   -0.052069
   7 C :   -0.044034
   8 C :   -0.030394
   9 O :   -0.063525
  10 H :    0.049932
  11 H :    0.051240
  12 H :    0.046177
  13 H :    0.034229
  14 H :    0.032857
  15 H :    0.056630
  16 H :    0.045909
  17 H :    0.046885
  18 H :    0.049614
  19 H :    0.052301
  20 H :    0.042475
  21 H :    0.038626
  22 H :    0.045364
  23 H :    0.025089

  Mayer bond orders larger than 0.100000
B(  0-C ,  1-C ) :   1.0300 B(  0-C , 10-H ) :   0.9781 B(  0-C , 11-H ) :   0.9903
B(  0-C , 12-H ) :   0.9798 B(  1-C ,  2-C ) :   1.9493 B(  1-C ,  3-C ) :   1.0022
B(  2-C , 13-H ) :   0.9827 B(  2-C , 14-H ) :   0.9855 B(  3-C ,  4-C ) :   0.9784
B(  3-C ,  8-C ) :   1.0534 B(  3-C , 15-H ) :   0.9840 B(  4-C ,  5-C ) :   0.9880
B(  4-C , 16-H ) :   0.9981 B(  4-C , 17-H ) :   0.9919 B(  5-C ,  6-C ) :   0.9833
B(  5-C , 18-H ) :   0.9987 B(  5-C , 19-H ) :   0.9851 B(  6-C ,  7-C ) :   1.0137
B(  6-C ,  9-O ) :   0.9824 B(  6-C , 20-H ) :   0.9925 B(  7-C ,  8-C ) :   1.9179
B(  7-C , 21-H ) :   0.9840 B(  8-C , 22-H ) :   0.9894 B(  9-O , 23-H ) :   1.0645

Dispersion correction           -0.028788115
FINAL SINGLE POINT ENERGY       -75.744406450334

DIPOLE MOMENT
-------------

Method             : SCF
Type of density    : Electron Density
Multiplicity       :   1
Irrep              :   0
Energy             :   -75.7156183352591370 Eh
Relativity type    :
Basis              : AO
                                X                 Y                 Z
Electronic contribution:      3.390630136      -2.774026679       1.842007919
Nuclear contribution   :     -3.498566414       2.931556362      -1.170151767
                        -----------------------------------------
Total Dipole Moment    :     -0.107936278       0.157529684       0.671856152
                        -----------------------------------------
Magnitude (a.u.)       :      0.698467273
Magnitude (Debye)      :      1.775362717

VIBRATIONAL FREQUENCIES
-----------------------

Scaling factor for frequencies =  1.000000000  (already applied!)

     0:       0.00 cm**-1
     1:       0.00 cm**-1
     2:       0.00 cm**-1
     3:       0.00 cm**-1
     4:       0.00 cm**-1
     5:       0.00 cm**-1
     6:      61.47 cm**-1
     7:      73.41 cm**-1
     8:     173.59 cm**-1
     9:     188.94 cm**-1
    10:     202.88 cm**-1
    11:     243.99 cm**-1
    12:     300.94 cm**-1
    13:     337.54 cm**-1
    14:     349.77 cm**-1
    15:     385.04 cm**-1
    16:     455.64 cm**-1
    17:     486.27 cm**-1
    18:     527.65 cm**-1
    19:     594.13 cm**-1
    20:     615.42 cm**-1
    21:     729.75 cm**-1
    22:     749.29 cm**-1
    23:     761.20 cm**-1
    24:     845.43 cm**-1
    25:     888.53 cm**-1
    26:     940.41 cm**-1
    27:     956.52 cm**-1
    28:     987.62 cm**-1
    29:     994.61 cm**-1
    30:    1021.63 cm**-1
    31:    1027.24 cm**-1
    32:    1056.31 cm**-1
    33:    1078.84 cm**-1
    34:    1095.98 cm**-1
    35:    1117.62 cm**-1
    36:    1139.57 cm**-1
    37:    1142.73 cm**-1
    38:    1194.05 cm**-1
    39:    1214.45 cm**-1
    40:    1276.65 cm**-1
    41:    1287.26 cm**-1
    42:    1310.26 cm**-1
    43:    1366.17 cm**-1
    44:    1383.42 cm**-1
    45:    1385.29 cm**-1
    46:    1412.39 cm**-1
    47:    1425.81 cm**-1
    48:    1443.90 cm**-1
    49:    1460.87 cm**-1
    50:    1472.73 cm**-1
    51:    1477.45 cm**-1
    52:    1511.52 cm**-1
    53:    1520.02 cm**-1
    54:    1525.30 cm**-1
    55:    1529.79 cm**-1
    56:    1773.97 cm**-1
    57:    1784.24 cm**-1
    58:    3043.61 cm**-1
    59:    3080.58 cm**-1
    60:    3100.04 cm**-1
    61:    3104.97 cm**-1
    62:    3122.92 cm**-1
    63:    3165.00 cm**-1
    64:    3179.45 cm**-1
    65:    3181.75 cm**-1
    66:    3209.03 cm**-1
    67:    3209.58 cm**-1
    68:    3211.74 cm**-1
    69:    3236.08 cm**-1
    70:    3307.65 cm**-1
    71:    3964.46 cm**-1

IR SPECTRUM
-----------

 Mode   freq       eps      Int      T**2         TX        TY        TZ
       cm**-1   L/(mol*cm) km/mol    a.u.
----------------------------------------------------------------------------
  6:     61.47   0.000115    0.58  0.000584  (-0.021372  0.006241  0.009407)
  7:     73.41   0.000007    0.04  0.000030  (-0.004015  0.002905  0.002231)
  8:    173.59   0.000168    0.85  0.000303  (-0.007594 -0.015076 -0.004227)
  9:    188.94   0.000751    3.80  0.001241  (-0.017805 -0.030015  0.004790)
 10:    202.88   0.000064    0.33  0.000099  ( 0.009117  0.003215  0.002362)
 11:    243.99   0.024957  126.12  0.031919  ( 0.122432  0.130007  0.005251)
 12:    300.94   0.000340    1.72  0.000353  (-0.016859 -0.004934  0.006649)
 13:    337.54   0.000283    1.43  0.000262  (-0.006955  0.010926  0.009700)
 14:    349.77   0.000776    3.92  0.000692  (-0.002339 -0.024181  0.010111)
 15:    385.04   0.000970    4.90  0.000786  ( 0.006866 -0.025958 -0.008082)
 16:    455.64   0.000185    0.94  0.000127  ( 0.010080  0.000556 -0.004982)
 17:    486.27   0.000575    2.90  0.000369  ( 0.019186 -0.000453 -0.000734)
 18:    527.65   0.002439   12.32  0.001442  ( 0.023969  0.006108 -0.028817)
 19:    594.13   0.000499    2.52  0.000262  (-0.002300  0.015998  0.001010)
 20:    615.42   0.001158    5.85  0.000587  ( 0.019097 -0.003109 -0.014580)
 21:    729.75   0.001734    8.76  0.000741  (-0.016380 -0.007734 -0.020329)
 22:    749.29   0.000174    0.88  0.000072  (-0.004943 -0.002019  0.006624)
 23:    761.20   0.003187   16.10  0.001306  ( 0.008505  0.017525  0.030446)
 24:    845.43   0.000010    0.05  0.000004  ( 0.000288  0.000014  0.001857)
 25:    888.53   0.003050   15.42  0.001071  ( 0.020612  0.003250  0.025218)
 26:    940.41   0.000395    2.00  0.000131  (-0.004936  0.006013  0.008399)
 27:    956.52   0.008070   40.78  0.002633  ( 0.023682  0.035513 -0.028473)
 28:    987.62   0.000504    2.55  0.000159  ( 0.000194  0.012341  0.002644)
 29:    994.61   0.002896   14.64  0.000909  (-0.002780  0.023492  0.018683)
 30:   1021.63   0.000449    2.27  0.000137  (-0.001240 -0.003093 -0.011232)
 31:   1027.24   0.000016    0.08  0.000005  (-0.002133 -0.000527  0.000124)
 32:   1056.31   0.000708    3.58  0.000209  (-0.004620 -0.002852  0.013399)
 33:   1078.84   0.001280    6.47  0.000370  ( 0.015945  0.001663 -0.010635)
 34:   1095.98   0.000313    1.58  0.000089  ( 0.005092  0.004303 -0.006674)
 35:   1117.62   0.010665   53.90  0.002978  ( 0.039379 -0.019545 -0.032330)
 36:   1139.57   0.014195   71.74  0.003887  ( 0.052253 -0.015646 -0.030199)
 37:   1142.73   0.000551    2.78  0.000150  (-0.009941 -0.000492  0.007160)
 38:   1194.05   0.000633    3.20  0.000165  (-0.002961 -0.002403 -0.012281)
 39:   1214.45   0.004544   22.96  0.001168  ( 0.025587 -0.009429 -0.020592)
 40:   1276.65   0.001331    6.73  0.000325  (-0.015831 -0.005897 -0.006326)
 41:   1287.26   0.000198    1.00  0.000048  (-0.003731  0.003904  0.004352)
 42:   1310.26   0.007297   36.88  0.001738  (-0.022584  0.013116  0.032495)
 43:   1366.17   0.002287   11.56  0.000522  ( 0.021813  0.003861 -0.005633)
 44:   1383.42   0.001017    5.14  0.000229  ( 0.006049 -0.007860 -0.011443)
 45:   1385.29   0.001581    7.99  0.000356  (-0.017829 -0.000753  0.006138)
 46:   1412.39   0.001196    6.05  0.000264  ( 0.011652 -0.003605 -0.010750)
 47:   1425.81   0.001358    6.86  0.000297  (-0.013964  0.001594  0.009981)
 48:   1443.90   0.002724   13.77  0.000589  ( 0.021810 -0.010039 -0.003505)
 49:   1460.87   0.001789    9.04  0.000382  ( 0.014383  0.002935 -0.012909)
 50:   1472.73   0.000720    3.64  0.000152  (-0.009635 -0.001053 -0.007653)
 51:   1477.45   0.000249    1.26  0.000053  (-0.001692 -0.002594 -0.006551)
 52:   1511.52   0.001611    8.14  0.000333  ( 0.007183  0.011334 -0.012347)
 53:   1520.02   0.001157    5.85  0.000238  ( 0.004083 -0.002333  0.014677)
 54:   1525.30   0.004606   23.28  0.000942  ( 0.005997  0.022902  0.019542)
 55:   1529.79   0.001513    7.64  0.000309  ( 0.002229  0.011027 -0.013491)
 56:   1773.97   0.004080   20.62  0.000718  (-0.002980  0.022954  0.013486)
 57:   1784.24   0.000962    4.86  0.000168  (-0.011484  0.001922 -0.005714)
 58:   3043.61   0.008535   43.13  0.000875  ( 0.014517  0.015817  0.020351)
 59:   3080.58   0.002843   14.37  0.000288  ( 0.012447  0.001611 -0.011422)
 60:   3100.04   0.002821   14.26  0.000284  ( 0.016209 -0.003841  0.002542)
 61:   3104.97   0.012486   63.10  0.001255  (-0.011916  0.027058  0.019513)
 62:   3122.92   0.003483   17.60  0.000348  ( 0.008494  0.009307 -0.013758)
 63:   3165.00   0.004269   21.57  0.000421  ( 0.013103 -0.009694  0.012460)
 64:   3179.45   0.002733   13.81  0.000268  (-0.002865 -0.012601  0.010065)
 65:   3181.75   0.003052   15.42  0.000299  (-0.010428 -0.013358 -0.003482)
 66:   3209.03   0.002011   10.16  0.000196  (-0.012644  0.005925 -0.000776)
 67:   3209.58   0.000219    1.11  0.000021  (-0.002240 -0.001629 -0.003696)
 68:   3211.74   0.003364   17.00  0.000327  ( 0.010261  0.007846  0.012650)
 69:   3236.08   0.003286   16.60  0.000317  ( 0.000464 -0.013914  0.011091)
 70:   3307.65   0.000787    3.98  0.000074  (-0.007078 -0.000661 -0.004873)
 71:   3964.46   0.010981   55.49  0.000864  (-0.025486  0.013150 -0.006474)

--------------------------
THERMOCHEMISTRY AT 298.15K
--------------------------

Temperature         ...   298.15 K
Pressure            ...     1.00 atm
Total Mass          ...   138.21 AMU
Quasi RRHO          ...     True
Cut-Off Frequency   ...     1.00 cm^-1

Throughout the following assumptions are being made:
  (1) The electronic state is orbitally nondegenerate
  (2) There are no thermally accessible electronically excited states
  (3) Hindered rotations indicated by low frequency modes are not
      treated as such but are treated as vibrations and this may
      cause some error
  (4) All equations used are the standard statistical mechanics
      equations for an ideal gas
  (5) All vibrations are strictly harmonic

freq.      61.47  E(vib)   ...       0.51
freq.      73.41  E(vib)   ...       0.49
freq.     173.59  E(vib)   ...       0.38
freq.     188.94  E(vib)   ...       0.36
freq.     202.88  E(vib)   ...       0.35
freq.     243.99  E(vib)   ...       0.31
freq.     300.94  E(vib)   ...       0.26
freq.     337.54  E(vib)   ...       0.24
freq.     349.77  E(vib)   ...       0.23
freq.     385.04  E(vib)   ...       0.20
freq.     455.64  E(vib)   ...       0.16
freq.     486.27  E(vib)   ...       0.15
freq.     527.65  E(vib)   ...       0.13
freq.     594.13  E(vib)   ...       0.10
freq.     615.42  E(vib)   ...       0.10
freq.     729.75  E(vib)   ...       0.06
freq.     749.29  E(vib)   ...       0.06
freq.     761.20  E(vib)   ...       0.06
freq.     845.43  E(vib)   ...       0.04
freq.     888.53  E(vib)   ...       0.04
freq.     940.41  E(vib)   ...       0.03
freq.     956.52  E(vib)   ...       0.03
freq.     987.62  E(vib)   ...       0.02
freq.     994.61  E(vib)   ...       0.02
freq.    1021.63  E(vib)   ...       0.02
freq.    1027.24  E(vib)   ...       0.02
freq.    1056.31  E(vib)   ...       0.02
freq.    1078.84  E(vib)   ...       0.02
freq.    1095.98  E(vib)   ...       0.02
freq.    1117.62  E(vib)   ...       0.01
freq.    1139.57  E(vib)   ...       0.01
freq.    1142.73  E(vib)   ...       0.01
freq.    1194.05  E(vib)   ...       0.01
freq.    1214.45  E(vib)   ...       0.01
freq.    1276.65  E(vib)   ...       0.01
freq.    1287.26  E(vib)   ...       0.01
freq.    1310.26  E(vib)   ...       0.01
freq.    1366.17  E(vib)   ...       0.01
freq.    1383.42  E(vib)   ...       0.00
freq.    1385.29  E(vib)   ...       0.00
freq.    1412.39  E(vib)   ...       0.00
freq.    1425.81  E(vib)   ...       0.00
freq.    1443.90  E(vib)   ...       0.00
freq.    1460.87  E(vib)   ...       0.00
freq.    1472.73  E(vib)   ...       0.00
freq.    1477.45  E(vib)   ...       0.00
freq.    1511.52  E(vib)   ...       0.00
freq.    1520.02  E(vib)   ...       0.00
freq.    1525.30  E(vib)   ...       0.00
freq.    1529.79  E(vib)   ...       0.00
freq.    1773.97  E(vib)   ...       0.00
freq.    1784.24  E(vib)   ...       0.00
freq.    3043.61  E(vib)   ...       0.00
freq.    3080.58  E(vib)   ...       0.00
freq.    3100.04  E(vib)   ...       0.00
freq.    3104.97  E(vib)   ...       0.00
freq.    3122.92  E(vib)   ...       0.00
freq.    3165.00  E(vib)   ...       0.00
freq.    3179.45  E(vib)   ...       0.00
freq.    3181.75  E(vib)   ...       0.00
freq.    3209.03  E(vib)   ...       0.00
freq.    3209.58  E(vib)   ...       0.00
freq.    3211.74  E(vib)   ...       0.00
freq.    3236.08  E(vib)   ...       0.00
freq.    3307.65  E(vib)   ...       0.00
freq.    3964.46  E(vib)   ...       0.00

------------
INNER ENERGY
------------

The inner energy is: U= E(el) + E(ZPE) + E(vib) + E(rot) + E(trans)
    E(el)   - is the total energy from the electronic structure calculation
              = E(kin-el) + E(nuc-el) + E(el-el) + E(nuc-nuc)
    E(ZPE)  - the the zero temperature vibrational energy from the frequency calculation
    E(vib)  - the the finite temperature correction to E(ZPE) due to population
              of excited vibrational states
    E(rot)  - is the rotational thermal energy
    E(trans)- is the translational thermal energy

Summary of contributions to the inner energy U:
Electronic energy                ...    -75.74440645 Eh
Zero point energy                ...      0.21734262 Eh     136.38 kcal/mol
Thermal vibrational correction   ...      0.00726319 Eh       4.56 kcal/mol
Thermal rotational correction    ...      0.00141627 Eh       0.89 kcal/mol
Thermal translational correction ...      0.00141627 Eh       0.89 kcal/mol
-----------------------------------------------------------------------
Total thermal energy                    -75.51696810 Eh

Summary of corrections to the electronic energy:
(perhaps to be used in another calculation)
Total thermal correction                  0.01009574 Eh       6.34 kcal/mol
Non-thermal (ZPE) correction              0.21734262 Eh     136.38 kcal/mol
-----------------------------------------------------------------------
Total correction                          0.22743835 Eh     142.72 kcal/mol

--------
ENTHALPY
--------

The enthalpy is H = U + kB*T
                kB is Boltzmann's constant
Total thermal energy              ...    -75.51696810 Eh
Thermal Enthalpy correction       ...      0.00094421 Eh       0.59 kcal/mol
-----------------------------------------------------------------------
Total Enthalpy                    ...    -75.51602389 Eh

Note: Only C1 symmetry has been detected, increase convergence thresholds
      if your molecule has a higher symmetry. Symmetry factor of 1.0 is
      used for the rotational entropy correction.

Note: Rotational entropy computed according to Herzberg
Infrared and Raman Spectra, Chapter V,1, Van Nostrand Reinhold, 1945
Point Group:  C1, Symmetry Number:   1
Rotational constants in cm-1:     0.086019     0.028498     0.027295

Vibrational entropy computed according to the QRRHO of S. Grimme
Chem.Eur.J. 2012 18 9955 using a reference frequency of 100.0 cm-1

-------
ENTROPY
-------

The entropy contributions are T*S = T*(S(el)+S(vib)+S(rot)+S(trans))
     S(el)   - electronic entropy
     S(vib)  - vibrational entropy
     S(rot)  - rotational entropy
     S(trans)- translational entropy
The entropies will be listed as multiplied by the temperature to get
units of energy

Electronic entropy                ...      0.00000000 Eh      0.00 kcal/mol
Vibrational entropy               ...      0.01214002 Eh      7.62 kcal/mol
Rotational entropy                ...      0.01404861 Eh      8.82 kcal/mol
Translational entropy             ...      0.01932955 Eh     12.13 kcal/mol
-----------------------------------------------------------------------
Final entropy term                ...      0.04551818 Eh     28.56 kcal/mol

                             ****ORCA TERMINATED NORMALLY****
TOTAL RUN TIME: 0 days 0 hours 16 minutes 47 seconds 506 msec
