                         Program Version 6.0.1  -  RELEASE   -
|  1> ! wB97X-3c OPT FREQ TightSCF
|  2> %pal
|  3>   nprocs 40
|  4> end
|  5> * xyz 0 1
|  6> C      4.680079     0.729094    -0.942972
|  7> C      3.954277    -0.349284    -0.212977
|  8> O      4.600299    -1.166487     0.497850
|  9> O      2.560289    -0.413958    -0.287725
| 10> C      1.799587    -1.401962     0.400177
| 11> C      0.342981    -1.200964     0.121570
| 12> C     -0.289150    -0.092902     0.528276
| 13> C     -1.725573     0.181751     0.277777
| 14> C     -2.184119     1.506785     0.380913
| 15> C     -3.530726     1.812387     0.161698
| 16> C     -4.436784     0.798038    -0.153435
| 17> C     -3.998940    -0.524741    -0.244185
| 18> C     -2.652962    -0.836732    -0.026721
| 19> H      4.065064     1.091923    -1.793031
| 20> H      5.643062     0.341240    -1.337104
| 21> H      4.879998     1.573725    -0.251474
| 22> H      2.102554    -2.412363     0.049881
| 23> H      1.983742    -1.331935     1.494550
| 24> H     -0.173534    -1.969556    -0.436253
| 25> H      0.288517     0.670833     1.037849
| 26> H     -1.496933     2.308267     0.623987
| 27> H     -3.871778     2.836852     0.237315
| 28> H     -5.479224     1.036078    -0.321217
| 29> H     -4.705052    -1.311522    -0.476707
| 30> H     -2.355673    -1.874565    -0.076254
| 31> *
| 32>
| 33>                          ****END OF INPUT****
 Total Charge           Charge          ....    0
 Multiplicity           Mult            ....    1
 Number of Electrons    NEL             ....   68
Dispersion correction           -0.029259022
FINAL SINGLE POINT ENERGY      -101.971475112394
Dispersion correction             ... done (  0.1 sec)
Dispersion correction           -0.029716393
FINAL SINGLE POINT ENERGY      -101.988539304891
Dispersion correction             ... done (  0.1 sec)
Dispersion correction           -0.029803135
FINAL SINGLE POINT ENERGY      -101.990075819930
Dispersion correction             ... done (  0.1 sec)
FINAL SINGLE POINT ENERGY      -101.990061885051
FINAL SINGLE POINT ENERGY      -101.990484016877
FINAL SINGLE POINT ENERGY      -101.990656051094
FINAL SINGLE POINT ENERGY      -101.990895516900
FINAL SINGLE POINT ENERGY      -101.991236688715
FINAL SINGLE POINT ENERGY      -101.991681271926
FINAL SINGLE POINT ENERGY      -101.992179449064
FINAL SINGLE POINT ENERGY      -101.994504289580
FINAL SINGLE POINT ENERGY      -101.994534004366
FINAL SINGLE POINT ENERGY      -101.994568166797
FINAL SINGLE POINT ENERGY      -101.994587932191
FINAL SINGLE POINT ENERGY      -101.994601799404
FINAL SINGLE POINT ENERGY      -101.994609313561
FINAL SINGLE POINT ENERGY      -101.994614019498
Dispersion correction             ... done (  0.1 sec)
Dispersion correction           -0.029583908
FINAL SINGLE POINT ENERGY      -101.994616020068
Dispersion correction             ... done (  0.1 sec)
Dispersion correction           -0.029583863
FINAL SINGLE POINT ENERGY      -101.994616707943
Dispersion correction             ... done (  0.1 sec)
                    ***********************HURRAY********************

CARTESIAN COORDINATES (ANGSTROEM)
---------------------------------
  C      4.872837    0.015404   -1.362878
  C      4.054410   -0.480861   -0.214987
  O      4.492662   -0.951286    0.799209
  O      2.746085   -0.340017   -0.448499
  C      1.869097   -0.792793    0.588564
  C      0.471354   -0.611593    0.123695
  C     -0.438692    0.057524    0.817205
  C     -1.849011    0.236240    0.449645
  C     -2.563741    1.290890    1.005637
  C     -3.886905    1.510411    0.668737
  C     -4.521978    0.668885   -0.226675
  C     -3.825388   -0.395574   -0.775451
  C     -2.503928   -0.612389   -0.437478
  H      4.638194   -0.561956   -2.254138
  H      5.925448   -0.081427   -1.123080
  H      4.626375    1.054033   -1.568981
  H      2.090067   -1.841264    0.789622
  H      2.067533   -0.231150    1.499598
  H      0.220024   -1.072666   -0.824301
  H     -0.131590    0.541989    1.738483
  H     -2.071312    1.952900    1.705930
  H     -4.423334    2.339793    1.108488
  H     -5.557486    0.834501   -0.489446
  H     -4.319250   -1.067247   -1.464069
  H     -1.981472   -1.462344   -0.853040

 Multiplicity           Mult            ....    1
 Number of Electrons    NEL             ....   68
 Basis Dimension        Dim             ....  229

ORBITAL ENERGIES
----------------

  NO   OCC          E(Eh)            E(eV)
   0   2.0000      -1.244143       -33.8549
   1   2.0000      -1.145414       -31.1683
   2   2.0000      -1.017367       -27.6840
   3   2.0000      -0.961429       -26.1618
   4   2.0000      -0.917556       -24.9680
   5   2.0000      -0.895730       -24.3740
   6   2.0000      -0.885075       -24.0841
   7   2.0000      -0.827828       -22.5263
   8   2.0000      -0.754911       -20.5422
   9   2.0000      -0.739446       -20.1213
  10   2.0000      -0.699769       -19.0417
  11   2.0000      -0.693718       -18.8770
  12   2.0000      -0.652167       -17.7464
  13   2.0000      -0.623745       -16.9730
  14   2.0000      -0.618514       -16.8306
  15   2.0000      -0.602311       -16.3897
  16   2.0000      -0.584796       -15.9131
  17   2.0000      -0.579951       -15.7813
  18   2.0000      -0.561163       -15.2700
  19   2.0000      -0.547266       -14.8919
  20   2.0000      -0.540073       -14.6961
  21   2.0000      -0.533895       -14.5280
  22   2.0000      -0.520349       -14.1594
  23   2.0000      -0.502068       -13.6620
  24   2.0000      -0.496040       -13.4979
  25   2.0000      -0.485035       -13.1985
  26   2.0000      -0.472577       -12.8595
  27   2.0000      -0.456430       -12.4201
  28   2.0000      -0.452526       -12.3139
  29   2.0000      -0.424434       -11.5494
  30   2.0000      -0.411320       -11.1926
  31   2.0000      -0.390885       -10.6365
  32   2.0000      -0.358089        -9.7441
  33   2.0000      -0.327891        -8.9224
  34   0.0000       0.030010         0.8166
  35   0.0000       0.062440         1.6991
  36   0.0000       0.083752         2.2790
  37   0.0000       0.087101         2.3701
  38   0.0000       0.090741         2.4692

MULLIKEN ATOMIC CHARGES
-----------------------
   0 C :   -0.065070
   1 C :    0.243819
   2 O :   -0.327807
   3 O :   -0.271147
   4 C :    0.072989
   5 C :    0.024545
   6 C :    0.003991
   7 C :   -0.082607
   8 C :   -0.000061
   9 C :   -0.002970
  10 C :   -0.010275
  11 C :   -0.006870
  12 C :   -0.003366
  13 H :    0.056887
  14 H :    0.057036
  15 H :    0.057997
  16 H :    0.061786
  17 H :    0.047534
  18 H :    0.031471
  19 H :    0.020550
  20 H :    0.018423
  21 H :    0.017910
  22 H :    0.019517
  23 H :    0.018178
  24 H :    0.017540
Sum of atomic charges:    0.0000000

LOEWDIN ATOMIC CHARGES
----------------------
   0 C :   -0.083276
   1 C :   -0.054891
   2 O :   -0.143776
   3 O :   -0.015442
   4 C :   -0.027372
   5 C :   -0.032584
   6 C :   -0.032026
   7 C :   -0.048120
   8 C :   -0.032104
   9 C :   -0.043573
  10 C :   -0.044187
  11 C :   -0.042855
  12 C :   -0.028863
  13 H :    0.061988
  14 H :    0.062023
  15 H :    0.062280
  16 H :    0.056975
  17 H :    0.057098
  18 H :    0.043415
  19 H :    0.049246
  20 H :    0.047448
  21 H :    0.047930
  22 H :    0.046895
  23 H :    0.047904
  24 H :    0.045865

  Mayer bond orders larger than 0.100000
B(  0-C ,  1-C ) :   1.0424 B(  0-C , 13-H ) :   0.9724 B(  0-C , 14-H ) :   0.9873
B(  0-C , 15-H ) :   0.9732 B(  1-C ,  2-O ) :   1.9258 B(  1-C ,  3-O ) :   1.1431
B(  3-O ,  4-C ) :   0.8918 B(  4-C ,  5-C ) :   1.0328 B(  4-C , 16-H ) :   0.9900
B(  4-C , 17-H ) :   1.0005 B(  5-C ,  6-C ) :   1.8251 B(  5-C , 18-H ) :   0.9905
B(  6-C ,  7-C ) :   1.1234 B(  6-C , 19-H ) :   0.9898 B(  7-C ,  8-C ) :   1.4214
B(  7-C , 12-C ) :   1.4278 B(  8-C ,  9-C ) :   1.4522 B(  8-C , 20-H ) :   0.9884
B(  9-C , 10-C ) :   1.4487 B(  9-C , 21-H ) :   0.9901 B( 10-C , 11-C ) :   1.4366
B( 10-C , 22-H ) :   0.9927 B( 11-C , 12-C ) :   1.4655 B( 11-C , 23-H ) :   0.9903
B( 12-C , 24-H ) :   0.9861

Dispersion correction           -0.029583923
FINAL SINGLE POINT ENERGY      -101.994616875208

DIPOLE MOMENT
-------------

Method             : SCF
Type of density    : Electron Density
Multiplicity       :   1
Irrep              :   0
Energy             :  -101.9650329519369052 Eh
Relativity type    :
Basis              : AO
                                X                 Y                 Z
Electronic contribution:     -9.477093750       0.446815335       2.319118208
Nuclear contribution   :      8.857418890      -0.171118131      -2.881648852
                        -----------------------------------------
Total Dipole Moment    :     -0.619674860       0.275697204      -0.562530644
                        -----------------------------------------
Magnitude (a.u.)       :      0.881162077
Magnitude (Debye)      :      2.239736005

VIBRATIONAL FREQUENCIES
-----------------------

Scaling factor for frequencies =  1.000000000  (already applied!)

     0:       0.00 cm**-1
     1:       0.00 cm**-1
     2:       0.00 cm**-1
     3:       0.00 cm**-1
     4:       0.00 cm**-1
     5:       0.00 cm**-1
     6:      26.19 cm**-1
     7:      33.83 cm**-1
     8:      53.74 cm**-1
     9:      56.47 cm**-1
    10:      89.82 cm**-1
    11:     132.79 cm**-1
    12:     183.77 cm**-1
    13:     189.80 cm**-1
    14:     256.83 cm**-1
    15:     292.82 cm**-1
    16:     398.09 cm**-1
    17:     419.50 cm**-1
    18:     449.62 cm**-1
    19:     466.07 cm**-1
    20:     547.66 cm**-1
    21:     623.38 cm**-1
    22:     627.88 cm**-1
    23:     645.08 cm**-1
    24:     677.10 cm**-1
    25:     720.22 cm**-1
    26:     776.33 cm**-1
    27:     847.57 cm**-1
    28:     871.58 cm**-1
    29:     877.10 cm**-1
    30:     955.95 cm**-1
    31:     958.71 cm**-1
    32:    1012.20 cm**-1
    33:    1013.59 cm**-1
    34:    1015.83 cm**-1
    35:    1032.22 cm**-1
    36:    1037.15 cm**-1
    37:    1041.23 cm**-1
    38:    1082.05 cm**-1
    39:    1097.32 cm**-1
    40:    1103.67 cm**-1
    41:    1130.43 cm**-1
    42:    1168.55 cm**-1
    43:    1195.49 cm**-1
    44:    1227.49 cm**-1
    45:    1259.44 cm**-1
    46:    1287.10 cm**-1
    47:    1326.14 cm**-1
    48:    1336.46 cm**-1
    49:    1352.20 cm**-1
    50:    1372.46 cm**-1
    51:    1388.76 cm**-1
    52:    1431.09 cm**-1
    53:    1462.42 cm**-1
    54:    1502.95 cm**-1
    55:    1509.01 cm**-1
    56:    1522.06 cm**-1
    57:    1530.72 cm**-1
    58:    1574.09 cm**-1
    59:    1692.89 cm**-1
    60:    1720.02 cm**-1
    61:    1798.13 cm**-1
    62:    1875.78 cm**-1
    63:    3128.13 cm**-1
    64:    3137.51 cm**-1
    65:    3193.70 cm**-1
    66:    3216.26 cm**-1
    67:    3232.39 cm**-1
    68:    3239.77 cm**-1
    69:    3244.56 cm**-1
    70:    3251.56 cm**-1
    71:    3261.52 cm**-1
    72:    3266.16 cm**-1
    73:    3270.08 cm**-1
    74:    3278.04 cm**-1

IR SPECTRUM
-----------

 Mode   freq       eps      Int      T**2         TX        TY        TZ
       cm**-1   L/(mol*cm) km/mol    a.u.
----------------------------------------------------------------------------
  6:     26.19   0.000247    1.25  0.002946  (-0.001816  0.050082  0.020855)
  7:     33.83   0.000280    1.41  0.002581  ( 0.009157  0.044369  0.023000)
  8:     53.74   0.000033    0.17  0.000193  (-0.012721  0.005570 -0.000804)
  9:     56.47   0.000017    0.09  0.000093  ( 0.006527 -0.006571 -0.002736)
 10:     89.82   0.000390    1.97  0.001355  (-0.030543  0.016472  0.012262)
 11:    132.79   0.000090    0.46  0.000212  (-0.009693 -0.005168 -0.009564)
 12:    183.77   0.000985    4.98  0.001673  (-0.008964 -0.038439 -0.010709)
 13:    189.80   0.000650    3.29  0.001069  (-0.031334 -0.004762  0.008032)
 14:    256.83   0.001052    5.32  0.001278  (-0.033520 -0.009952 -0.007441)
 15:    292.82   0.000804    4.07  0.000857  (-0.026478  0.007173 -0.010238)
 16:    398.09   0.000610    3.08  0.000478  ( 0.019243 -0.009179  0.004848)
 17:    419.50   0.000077    0.39  0.000057  (-0.006951  0.002640 -0.001316)
 18:    449.62   0.002514   12.70  0.001745  ( 0.037430  0.003111 -0.018282)
 19:    466.07   0.000953    4.82  0.000638  ( 0.015528 -0.013952  0.014229)
 20:    547.66   0.001933    9.77  0.001102  ( 0.017139  0.011528 -0.025980)
 21:    623.38   0.000839    4.24  0.000420  ( 0.001062  0.011047  0.017227)
 22:    627.88   0.000958    4.84  0.000476  (-0.002724 -0.020678  0.006404)
 23:    645.08   0.000002    0.01  0.000001  ( 0.000479 -0.000657 -0.000686)
 24:    677.10   0.000879    4.44  0.000405  ( 0.018070  0.001745 -0.008690)
 25:    720.22   0.008254   41.71  0.003577  (-0.016749 -0.034030  0.046237)
 26:    776.33   0.007679   38.81  0.003087  ( 0.021112  0.033729 -0.038776)
 27:    847.57   0.000104    0.53  0.000038  (-0.003107  0.000878  0.005287)
 28:    871.58   0.000435    2.20  0.000156  ( 0.004064  0.002194 -0.011590)
 29:    877.10   0.000425    2.15  0.000151  ( 0.002679  0.003538 -0.011465)
 30:    955.95   0.000272    1.37  0.000089  (-0.008725  0.000974  0.003419)
 31:    958.71   0.003212   16.23  0.001045  ( 0.020881 -0.013234  0.020841)
 32:   1012.20   0.000789    3.99  0.000243  ( 0.008742  0.012625 -0.002704)
 33:   1013.59   0.000128    0.65  0.000039  ( 0.003648  0.003231 -0.003945)
 34:   1015.83   0.010527   53.20  0.003234  (-0.029335 -0.036592  0.032162)
 35:   1032.22   0.000592    2.99  0.000179  (-0.007226 -0.009142  0.006572)
 36:   1037.15   0.001238    6.26  0.000373  (-0.003019 -0.013701  0.013257)
 37:   1041.23   0.000445    2.25  0.000133  ( 0.006803  0.006074 -0.007093)
 38:   1082.05   0.000648    3.27  0.000187  ( 0.012005 -0.003729  0.005366)
 39:   1097.32   0.002186   11.05  0.000622  ( 0.006710  0.023173  0.006303)
 40:   1103.67   0.027040  136.65  0.007646  ( 0.080889  0.003434 -0.033028)
 41:   1130.43   0.001868    9.44  0.000516  (-0.015136 -0.014592 -0.008588)
 42:   1168.55   0.003111   15.72  0.000831  ( 0.028736  0.000437 -0.002198)
 43:   1195.49   0.000113    0.57  0.000029  (-0.005303  0.001096 -0.000409)
 44:   1227.49   0.000108    0.55  0.000027  ( 0.004462 -0.001322 -0.002408)
 45:   1259.44   0.000490    2.48  0.000121  ( 0.005536 -0.007873 -0.005370)
 46:   1287.10   0.000748    3.78  0.000181  ( 0.008949 -0.008989 -0.004527)
 47:   1326.14   0.112097  566.49  0.026378  ( 0.161547 -0.009178 -0.014018)
 48:   1336.46   0.009761   49.33  0.002279  ( 0.046242  0.002051 -0.011692)
 49:   1352.20   0.008819   44.57  0.002035  (-0.044211  0.005534  0.007074)
 50:   1372.46   0.000327    1.65  0.000074  ( 0.006028 -0.001416  0.006006)
 51:   1388.76   0.000168    0.85  0.000038  ( 0.003821 -0.004705 -0.000988)
 52:   1431.09   0.023344  117.97  0.005090  ( 0.067871 -0.003538 -0.021711)
 53:   1462.42   0.011461   57.92  0.002446  (-0.044242 -0.013418  0.017555)
 54:   1502.95   0.003596   18.17  0.000747  ( 0.004445 -0.011738  0.024271)
 55:   1509.01   0.002514   12.70  0.000520  ( 0.002233  0.020549  0.009620)
 56:   1522.06   0.001233    6.23  0.000253  (-0.006796 -0.006550 -0.012791)
 57:   1530.72   0.001245    6.29  0.000254  ( 0.006315 -0.006973  0.012856)
 58:   1574.09   0.002059   10.40  0.000408  ( 0.019471 -0.004484  0.002975)
 59:   1692.89   0.000335    1.69  0.000062  ( 0.004176 -0.005691 -0.003447)
 60:   1720.02   0.000886    4.48  0.000161  ( 0.012303 -0.003054 -0.000048)
 61:   1798.13   0.001173    5.93  0.000204  ( 0.013583 -0.004338  0.000516)
 62:   1875.78   0.072524  366.51  0.012065  ( 0.065823 -0.040665  0.077969)
 63:   3128.13   0.001780    8.99  0.000178  ( 0.001303  0.007767 -0.010749)
 64:   3137.51   0.000382    1.93  0.000038  ( 0.003320  0.001823 -0.004866)
 65:   3193.70   0.001028    5.20  0.000100  ( 0.002082  0.007682  0.006095)
 66:   3216.26   0.002150   10.87  0.000209  (-0.009873 -0.002534 -0.010233)
 67:   3232.39   0.000046    0.23  0.000004  ( 0.000441  0.001979  0.000578)
 68:   3239.77   0.001078    5.45  0.000104  ( 0.005357  0.002638  0.008259)
 69:   3244.56   0.000762    3.85  0.000073  (-0.007300 -0.001887 -0.004055)
 70:   3251.56   0.000059    0.30  0.000006  (-0.000223 -0.001685 -0.001666)
 71:   3261.52   0.001091    5.51  0.000104  (-0.006319 -0.004349 -0.006749)
 72:   3266.16   0.000276    1.39  0.000026  (-0.004781 -0.000512  0.001802)
 73:   3270.08   0.002954   14.93  0.000282  (-0.005126  0.013875  0.007946)
 74:   3278.04   0.001501    7.59  0.000143  (-0.011519 -0.000130 -0.003190)

--------------------------
THERMOCHEMISTRY AT 298.15K
--------------------------

Temperature         ...   298.15 K
Pressure            ...     1.00 atm
Total Mass          ...   176.22 AMU
Quasi RRHO          ...     True
Cut-Off Frequency   ...     1.00 cm^-1

Throughout the following assumptions are being made:
  (1) The electronic state is orbitally nondegenerate
  (2) There are no thermally accessible electronically excited states
  (3) Hindered rotations indicated by low frequency modes are not
      treated as such but are treated as vibrations and this may
      cause some error
  (4) All equations used are the standard statistical mechanics
      equations for an ideal gas
  (5) All vibrations are strictly harmonic

freq.      26.19  E(vib)   ...       0.56
freq.      33.83  E(vib)   ...       0.55
freq.      53.74  E(vib)   ...       0.52
freq.      56.47  E(vib)   ...       0.52
freq.      89.82  E(vib)   ...       0.47
freq.     132.79  E(vib)   ...       0.42
freq.     183.77  E(vib)   ...       0.37
freq.     189.80  E(vib)   ...       0.36
freq.     256.83  E(vib)   ...       0.30
freq.     292.82  E(vib)   ...       0.27
freq.     398.09  E(vib)   ...       0.20
freq.     419.50  E(vib)   ...       0.18
freq.     449.62  E(vib)   ...       0.17
freq.     466.07  E(vib)   ...       0.16
freq.     547.66  E(vib)   ...       0.12
freq.     623.38  E(vib)   ...       0.09
freq.     627.88  E(vib)   ...       0.09
freq.     645.08  E(vib)   ...       0.09
freq.     677.10  E(vib)   ...       0.08
freq.     720.22  E(vib)   ...       0.07
freq.     776.33  E(vib)   ...       0.05
freq.     847.57  E(vib)   ...       0.04
freq.     871.58  E(vib)   ...       0.04
freq.     877.10  E(vib)   ...       0.04
freq.     955.95  E(vib)   ...       0.03
freq.     958.71  E(vib)   ...       0.03
freq.    1012.20  E(vib)   ...       0.02
freq.    1013.59  E(vib)   ...       0.02
freq.    1015.83  E(vib)   ...       0.02
freq.    1032.22  E(vib)   ...       0.02
freq.    1037.15  E(vib)   ...       0.02
freq.    1041.23  E(vib)   ...       0.02
freq.    1082.05  E(vib)   ...       0.02
freq.    1097.32  E(vib)   ...       0.02
freq.    1103.67  E(vib)   ...       0.02
freq.    1130.43  E(vib)   ...       0.01
freq.    1168.55  E(vib)   ...       0.01
freq.    1195.49  E(vib)   ...       0.01
freq.    1227.49  E(vib)   ...       0.01
freq.    1259.44  E(vib)   ...       0.01
freq.    1287.10  E(vib)   ...       0.01
freq.    1326.14  E(vib)   ...       0.01
freq.    1336.46  E(vib)   ...       0.01
freq.    1352.20  E(vib)   ...       0.01
freq.    1372.46  E(vib)   ...       0.01
freq.    1388.76  E(vib)   ...       0.00
freq.    1431.09  E(vib)   ...       0.00
freq.    1462.42  E(vib)   ...       0.00
freq.    1502.95  E(vib)   ...       0.00
freq.    1509.01  E(vib)   ...       0.00
freq.    1522.06  E(vib)   ...       0.00
freq.    1530.72  E(vib)   ...       0.00
freq.    1574.09  E(vib)   ...       0.00
freq.    1692.89  E(vib)   ...       0.00
freq.    1720.02  E(vib)   ...       0.00
freq.    1798.13  E(vib)   ...       0.00
freq.    1875.78  E(vib)   ...       0.00
freq.    3128.13  E(vib)   ...       0.00
freq.    3137.51  E(vib)   ...       0.00
freq.    3193.70  E(vib)   ...       0.00
freq.    3216.26  E(vib)   ...       0.00
freq.    3232.39  E(vib)   ...       0.00
freq.    3239.77  E(vib)   ...       0.00
freq.    3244.56  E(vib)   ...       0.00
freq.    3251.56  E(vib)   ...       0.00
freq.    3261.52  E(vib)   ...       0.00
freq.    3266.16  E(vib)   ...       0.00
freq.    3270.08  E(vib)   ...       0.00
freq.    3278.04  E(vib)   ...       0.00

------------
INNER ENERGY
------------

The inner energy is: U= E(el) + E(ZPE) + E(vib) + E(rot) + E(trans)
    E(el)   - is the total energy from the electronic structure calculation
              = E(kin-el) + E(nuc-el) + E(el-el) + E(nuc-nuc)
    E(ZPE)  - the the zero temperature vibrational energy from the frequency calculation
    E(vib)  - the the finite temperature correction to E(ZPE) due to population
              of excited vibrational states
    E(rot)  - is the rotational thermal energy
    E(trans)- is the translational thermal energy

Summary of contributions to the inner energy U:
Electronic energy                ...   -101.99461688 Eh
Zero point energy                ...      0.20958349 Eh     131.52 kcal/mol
Thermal vibrational correction   ...      0.00968397 Eh       6.08 kcal/mol
Thermal rotational correction    ...      0.00141627 Eh       0.89 kcal/mol
Thermal translational correction ...      0.00141627 Eh       0.89 kcal/mol
-----------------------------------------------------------------------
Total thermal energy                   -101.77251687 Eh

Summary of corrections to the electronic energy:
(perhaps to be used in another calculation)
Total thermal correction                  0.01251651 Eh       7.85 kcal/mol
Non-thermal (ZPE) correction              0.20958349 Eh     131.52 kcal/mol
-----------------------------------------------------------------------
Total correction                          0.22210000 Eh     139.37 kcal/mol

--------
ENTHALPY
--------

The enthalpy is H = U + kB*T
                kB is Boltzmann's constant
Total thermal energy              ...   -101.77251687 Eh
Thermal Enthalpy correction       ...      0.00094421 Eh       0.59 kcal/mol
-----------------------------------------------------------------------
Total Enthalpy                    ...   -101.77157267 Eh

Note: Only C1 symmetry has been detected, increase convergence thresholds
      if your molecule has a higher symmetry. Symmetry factor of 1.0 is
      used for the rotational entropy correction.

Note: Rotational entropy computed according to Herzberg
Infrared and Raman Spectra, Chapter V,1, Van Nostrand Reinhold, 1945
Point Group:  C1, Symmetry Number:   1
Rotational constants in cm-1:     0.097624     0.008269     0.008101

Vibrational entropy computed according to the QRRHO of S. Grimme
Chem.Eur.J. 2012 18 9955 using a reference frequency of 100.0 cm-1

-------
ENTROPY
-------

The entropy contributions are T*S = T*(S(el)+S(vib)+S(rot)+S(trans))
     S(el)   - electronic entropy
     S(vib)  - vibrational entropy
     S(rot)  - rotational entropy
     S(trans)- translational entropy
The entropies will be listed as multiplied by the temperature to get
units of energy

Electronic entropy                ...      0.00000000 Eh      0.00 kcal/mol
Vibrational entropy               ...      0.01749843 Eh     10.98 kcal/mol
Rotational entropy                ...      0.01514644 Eh      9.50 kcal/mol

                             ****ORCA TERMINATED NORMALLY****
TOTAL RUN TIME: 0 days 0 hours 28 minutes 54 seconds 9 msec
