                         Program Version 6.0.1  -  RELEASE   -
|  1> ! wB97X-3c OPT FREQ TightSCF
|  2> %pal
|  3>   nprocs 40
|  4> end
|  5> * xyz 0 1
|  6> C     -2.744266     2.053566     0.021219
|  7> O     -2.696914     0.655777     0.288663
|  8> C     -1.563790    -0.151213     0.100777
|  9> C     -1.656497    -1.515862     0.410406
| 10> C     -0.545368    -2.352556     0.241998
| 11> C      0.659499    -1.834987    -0.236696
| 12> C      0.765330    -0.474802    -0.561527
| 13> C     -0.345647     0.365701    -0.383759
| 14> C      2.075310     0.085506    -1.048886
| 15> C      2.997958     0.363305     0.104648
| 16> C      2.784764     1.379415     0.945984
| 17> O     -2.859118    -2.033574     0.888602
| 18> H     -2.006038     2.588860     0.655079
| 19> H     -2.536367     2.244156    -1.052873
| 20> H     -3.758618     2.433939     0.259395
| 21> H     -0.614317    -3.405196     0.485344
| 22> H      1.511423    -2.493586    -0.353351
| 23> H     -0.252898     1.416806    -0.622186
| 24> H      2.558883    -0.649146    -1.728543
| 25> H      1.917115     1.015318    -1.638256
| 26> H      3.866504    -0.272198     0.250278
| 27> H      3.471448     1.557537     1.767025
| 28> H      1.930369     2.037837     0.822391
| 29> H     -2.958763    -3.014604     1.122211
| 30> *
| 31>
| 32>                          ****END OF INPUT****
 Total Charge           Charge          ....    0
 Multiplicity           Mult            ....    1
 Number of Electrons    NEL             ....   64
Dispersion correction           -0.029179553
FINAL SINGLE POINT ENERGY       -96.241286729932
Dispersion correction             ... done (  0.1 sec)
Dispersion correction           -0.029643182
FINAL SINGLE POINT ENERGY       -96.258484779051
Dispersion correction             ... done (  0.1 sec)
Dispersion correction           -0.029690808
FINAL SINGLE POINT ENERGY       -96.260317818582
Dispersion correction             ... done (  0.1 sec)
FINAL SINGLE POINT ENERGY       -96.260885844371
FINAL SINGLE POINT ENERGY       -96.261580606794
FINAL SINGLE POINT ENERGY       -96.262634780657
FINAL SINGLE POINT ENERGY       -96.263431359150
FINAL SINGLE POINT ENERGY       -96.264521876006
FINAL SINGLE POINT ENERGY       -96.264890980989
FINAL SINGLE POINT ENERGY       -96.265036752687
FINAL SINGLE POINT ENERGY       -96.265192260605
FINAL SINGLE POINT ENERGY       -96.265376753835
FINAL SINGLE POINT ENERGY       -96.265489397956
FINAL SINGLE POINT ENERGY       -96.265524035087
Dispersion correction             ... done (  0.1 sec)
Dispersion correction           -0.029473326
FINAL SINGLE POINT ENERGY       -96.265534982980
Dispersion correction             ... done (  0.1 sec)
Dispersion correction           -0.029475205
FINAL SINGLE POINT ENERGY       -96.265536265051
Dispersion correction             ... done (  0.1 sec)
                    ***********************HURRAY********************

CARTESIAN COORDINATES (ANGSTROEM)
---------------------------------
  C     -2.456006    1.918265    0.417630
  O     -2.647050    0.528358    0.389331
  C     -1.580505   -0.256904    0.134047
  C     -1.822609   -1.637548    0.128670
  C     -0.783929   -2.503502   -0.119363
  C      0.498339   -2.026055   -0.365658
  C      0.749583   -0.672163   -0.367442
  C     -0.304064    0.204930   -0.111840
  C      2.125967   -0.126615   -0.646375
  C      2.616895    0.791051    0.427247
  C      2.985189    2.047450    0.236356
  O     -3.090397   -2.050339    0.376341
  H     -1.743401    2.204852    1.192557
  H     -2.110798    2.290869   -0.548147
  H     -3.424532    2.353325    0.643029
  H     -0.973070   -3.569910   -0.119570
  H      1.298585   -2.727484   -0.558277
  H     -0.102443    1.265444   -0.100679
  H      2.818566   -0.963847   -0.746199
  H      2.131657    0.400146   -1.602516
  H      2.652995    0.371640    1.428130
  H      3.334930    2.663997    1.053675
  H      2.955083    2.500213   -0.747959
  H     -3.128982   -3.006175    0.344956

 Multiplicity           Mult            ....    1
 Number of Electrons    NEL             ....   64
 Basis Dimension        Dim             ....  216

ORBITAL ENERGIES
----------------

  NO   OCC          E(Eh)            E(eV)
   0   2.0000      -1.205988       -32.8166
   1   2.0000      -1.181304       -32.1449
   2   2.0000      -1.004114       -27.3233
   3   2.0000      -0.945009       -25.7150
   4   2.0000      -0.898834       -24.4585
   5   2.0000      -0.885997       -24.1092
   6   2.0000      -0.840470       -22.8703
   7   2.0000      -0.809847       -22.0371
   8   2.0000      -0.752977       -20.4895
   9   2.0000      -0.716118       -19.4866
  10   2.0000      -0.685061       -18.6415
  11   2.0000      -0.673369       -18.3233
  12   2.0000      -0.634459       -17.2645
  13   2.0000      -0.623514       -16.9667
  14   2.0000      -0.594450       -16.1758
  15   2.0000      -0.587994       -16.0001
  16   2.0000      -0.563407       -15.3311
  17   2.0000      -0.555937       -15.1278
  18   2.0000      -0.550497       -14.9798
  19   2.0000      -0.539332       -14.6760
  20   2.0000      -0.531182       -14.4542
  21   2.0000      -0.508818       -13.8456
  22   2.0000      -0.499240       -13.5850
  23   2.0000      -0.472789       -12.8652
  24   2.0000      -0.463173       -12.6036
  25   2.0000      -0.456350       -12.4179
  26   2.0000      -0.452390       -12.3102
  27   2.0000      -0.436766       -11.8850
  28   2.0000      -0.427774       -11.6403
  29   2.0000      -0.369077       -10.0431
  30   2.0000      -0.335241        -9.1224
  31   2.0000      -0.300480        -8.1765
  32   0.0000       0.071404         1.9430
  33   0.0000       0.075852         2.0640
  34   0.0000       0.078329         2.1314
  35   0.0000       0.089297         2.4299
  36   0.0000       0.095993         2.6121

MULLIKEN ATOMIC CHARGES
-----------------------
   0 C :    0.090981
   1 O :   -0.273505
   2 C :    0.100836
   3 C :    0.057121
   4 C :   -0.012719
   5 C :   -0.005970
   6 C :   -0.090308
   7 C :   -0.018705
   8 C :   -0.062003
   9 C :   -0.040310
  10 C :   -0.039211
  11 O :   -0.190184
  12 H :    0.040986
  13 H :    0.038883
  14 H :    0.050496
  15 H :    0.009973
  16 H :    0.012129
  17 H :    0.007959
  18 H :    0.047934
  19 H :    0.045989
  20 H :    0.022687
  21 H :    0.028420
  22 H :    0.024367
  23 H :    0.154155
Sum of atomic charges:    0.0000000

LOEWDIN ATOMIC CHARGES
----------------------
   0 C :   -0.059321
   1 O :   -0.018702
   2 C :   -0.030821
   3 C :   -0.024176
   4 C :   -0.059842
   5 C :   -0.057425
   6 C :   -0.049774
   7 C :   -0.044941
   8 C :   -0.080122
   9 C :   -0.043925
  10 C :   -0.080125
  11 O :   -0.000140
  12 H :    0.046019
  13 H :    0.045255
  14 H :    0.058549
  15 H :    0.042045
  16 H :    0.042888
  17 H :    0.041848
  18 H :    0.056680
  19 H :    0.054675
  20 H :    0.043708
  21 H :    0.036136
  22 H :    0.032345
  23 H :    0.049166

  Mayer bond orders larger than 0.100000
B(  0-C ,  1-O ) :   0.9460 B(  0-C , 12-H ) :   0.9887 B(  0-C , 13-H ) :   0.9889
B(  0-C , 14-H ) :   1.0046 B(  1-O ,  2-C ) :   1.0920 B(  2-C ,  3-C ) :   1.3672
B(  2-C ,  7-C ) :   1.4807 B(  3-C ,  4-C ) :   1.4750 B(  3-C , 11-O ) :   1.1185
B(  4-C ,  5-C ) :   1.4047 B(  4-C , 15-H ) :   0.9750 B(  5-C ,  6-C ) :   1.4939
B(  5-C , 16-H ) :   0.9824 B(  6-C ,  7-C ) :   1.4140 B(  6-C ,  8-C ) :   1.0154
B(  7-C , 17-H ) :   0.9711 B(  8-C ,  9-C ) :   1.0233 B(  8-C , 18-H ) :   0.9813
B(  8-C , 19-H ) :   0.9790 B(  9-C , 10-C ) :   1.9355 B(  9-C , 20-H ) :   1.0023
B( 10-C , 21-H ) :   0.9953 B( 10-C , 22-H ) :   0.9958 B( 11-O , 23-H ) :   1.0399

Dispersion correction           -0.029475489
FINAL SINGLE POINT ENERGY       -96.265536453084

DIPOLE MOMENT
-------------

Method             : SCF
Type of density    : Electron Density
Multiplicity       :   1
Irrep              :   0
Energy             :   -96.2360609643694147 Eh
Relativity type    :
Basis              : AO
                                X                 Y                 Z
Electronic contribution:     -3.838970247      -7.955598227      -0.376723359
Nuclear contribution   :      4.198491394       7.929860567       0.276535070
                        -----------------------------------------
Total Dipole Moment    :      0.359521147      -0.025737660      -0.100188289
                        -----------------------------------------
Magnitude (a.u.)       :      0.374106369
Magnitude (Debye)      :      0.950902822

VIBRATIONAL FREQUENCIES
-----------------------

Scaling factor for frequencies =  1.000000000  (already applied!)

     0:       0.00 cm**-1
     1:       0.00 cm**-1
     2:       0.00 cm**-1
     3:       0.00 cm**-1
     4:       0.00 cm**-1
     5:       0.00 cm**-1
     6:      30.75 cm**-1
     7:      71.99 cm**-1
     8:      87.70 cm**-1
     9:     117.19 cm**-1
    10:     177.53 cm**-1
    11:     207.08 cm**-1
    12:     247.56 cm**-1
    13:     289.46 cm**-1
    14:     304.04 cm**-1
    15:     319.07 cm**-1
    16:     373.26 cm**-1
    17:     388.01 cm**-1
    18:     415.18 cm**-1
    19:     476.01 cm**-1
    20:     502.23 cm**-1
    21:     560.40 cm**-1
    22:     576.34 cm**-1
    23:     626.18 cm**-1
    24:     674.26 cm**-1
    25:     755.94 cm**-1
    26:     780.82 cm**-1
    27:     827.60 cm**-1
    28:     843.26 cm**-1
    29:     896.87 cm**-1
    30:     932.70 cm**-1
    31:     955.05 cm**-1
    32:     962.28 cm**-1
    33:     979.28 cm**-1
    34:    1000.58 cm**-1
    35:    1051.43 cm**-1
    36:    1116.18 cm**-1
    37:    1150.69 cm**-1
    38:    1172.80 cm**-1
    39:    1198.62 cm**-1
    40:    1204.99 cm**-1
    41:    1230.68 cm**-1
    42:    1245.04 cm**-1
    43:    1265.48 cm**-1
    44:    1316.45 cm**-1
    45:    1326.68 cm**-1
    46:    1341.14 cm**-1
    47:    1349.00 cm**-1
    48:    1379.71 cm**-1
    49:    1421.66 cm**-1
    50:    1477.26 cm**-1
    51:    1494.98 cm**-1
    52:    1509.47 cm**-1
    53:    1523.60 cm**-1
    54:    1528.91 cm**-1
    55:    1537.69 cm**-1
    56:    1616.23 cm**-1
    57:    1715.50 cm**-1
    58:    1725.65 cm**-1
    59:    1767.99 cm**-1
    60:    3087.45 cm**-1
    61:    3104.78 cm**-1
    62:    3159.76 cm**-1
    63:    3173.28 cm**-1
    64:    3202.02 cm**-1
    65:    3218.88 cm**-1
    66:    3228.53 cm**-1
    67:    3235.47 cm**-1
    68:    3259.77 cm**-1
    69:    3278.47 cm**-1
    70:    3303.08 cm**-1
    71:    3967.69 cm**-1

IR SPECTRUM
-----------

 Mode   freq       eps      Int      T**2         TX        TY        TZ
       cm**-1   L/(mol*cm) km/mol    a.u.
----------------------------------------------------------------------------
  6:     30.75   0.000027    0.14  0.000272  (-0.010959  0.003198 -0.011898)
  7:     71.99   0.000018    0.09  0.000077  ( 0.002271 -0.002809  0.007970)
  8:     87.70   0.001368    6.91  0.004869  ( 0.012559 -0.003752  0.068537)
  9:    117.19   0.000176    0.89  0.000469  (-0.008457  0.000907 -0.019914)
 10:    177.53   0.000152    0.77  0.000266  ( 0.001969 -0.000386 -0.016198)
 11:    207.08   0.000452    2.28  0.000681  ( 0.022530 -0.000213 -0.013160)
 12:    247.56   0.000692    3.50  0.000872  ( 0.026285 -0.000367  0.013464)
 13:    289.46   0.001020    5.16  0.001100  ( 0.028699  0.003043  0.016343)
 14:    304.04   0.006270   31.69  0.006436  ( 0.000919 -0.008690  0.079745)
 15:    319.07   0.012500   63.17  0.012226  (-0.026234  0.000191 -0.107413)
 16:    373.26   0.000729    3.69  0.000610  ( 0.001515  0.016472 -0.018337)
 17:    388.01   0.001041    5.26  0.000838  (-0.012121  0.005583 -0.025680)
 18:    415.18   0.001068    5.40  0.000802  ( 0.010866  0.012420  0.023023)
 19:    476.01   0.000612    3.09  0.000401  ( 0.007837  0.003410  0.018120)
 20:    502.23   0.000221    1.12  0.000137  (-0.003338  0.010933 -0.002576)
 21:    560.40   0.000850    4.30  0.000473  ( 0.021152  0.001096 -0.004967)
 22:    576.34   0.001028    5.20  0.000557  ( 0.020276  0.010850 -0.005277)
 23:    626.18   0.002852   14.41  0.001421  ( 0.030175 -0.004347  0.022181)
 24:    674.26   0.002579   13.03  0.001194  (-0.023982  0.005825  0.024181)
 25:    755.94   0.000885    4.47  0.000365  (-0.006477  0.005992  0.016957)
 26:    780.82   0.002794   14.12  0.001117  ( 0.024563 -0.013356 -0.018300)
 27:    827.60   0.007044   35.60  0.002656  ( 0.038853  0.010236  0.032278)
 28:    843.26   0.004704   23.77  0.001741  ( 0.006940  0.014825 -0.038376)
 29:    896.87   0.002821   14.25  0.000981  ( 0.013131 -0.005155  0.027972)
 30:    932.70   0.001505    7.61  0.000504  (-0.008405 -0.003156  0.020566)
 31:    955.05   0.000375    1.90  0.000123  ( 0.010446  0.001689  0.003274)
 32:    962.28   0.008460   42.75  0.002744  ( 0.050358 -0.010600 -0.009761)
 33:    979.28   0.000924    4.67  0.000294  (-0.014405  0.009255 -0.001096)
 34:   1000.58   0.002052   10.37  0.000640  (-0.021515  0.011927  0.005916)
 35:   1051.43   0.002727   13.78  0.000809  (-0.027659  0.005018  0.004378)
 36:   1116.18   0.004674   23.62  0.001307  (-0.022972  0.027471  0.004943)
 37:   1150.69   0.004588   23.19  0.001244  (-0.026863 -0.022849  0.000777)
 38:   1172.80   0.023109  116.78  0.006149  (-0.045747 -0.063251  0.007449)
 39:   1198.62   0.022374  113.07  0.005825  ( 0.067808  0.032792 -0.012320)
 40:   1204.99   0.000152    0.77  0.000039  ( 0.000586 -0.000572  0.006217)
 41:   1230.68   0.007444   37.62  0.001887  ( 0.036924 -0.020355 -0.010476)
 42:   1245.04   0.001299    6.56  0.000326  ( 0.010350 -0.014267 -0.003859)
 43:   1265.48   0.000381    1.92  0.000094  (-0.007405 -0.005684  0.002600)
 44:   1316.45   0.022863  115.54  0.005420  (-0.003909  0.073455  0.002945)
 45:   1326.68   0.011054   55.86  0.002600  ( 0.047978 -0.012381 -0.012037)
 46:   1341.14   0.015738   79.53  0.003662  ( 0.056929 -0.017702 -0.010374)
 47:   1349.00   0.003307   16.71  0.000765  ( 0.020950 -0.016556 -0.007216)
 48:   1379.71   0.002007   10.14  0.000454  ( 0.019628  0.007608 -0.003296)
 49:   1421.66   0.028610  144.58  0.006280  (-0.072978  0.027535  0.013997)
 50:   1477.26   0.000554    2.80  0.000117  ( 0.006735  0.007304 -0.004276)
 51:   1494.98   0.003046   15.39  0.000636  (-0.004992  0.024711 -0.000513)
 52:   1509.47   0.002412   12.19  0.000499  (-0.014210 -0.002095  0.017100)
 53:   1523.60   0.002039   10.30  0.000418  (-0.007244 -0.018928 -0.002609)
 54:   1528.91   0.002391   12.08  0.000488  ( 0.003417 -0.000082  0.021826)
 55:   1537.69   0.010180   51.44  0.002066  (-0.029463  0.033882  0.007062)
 56:   1616.23   0.046422  234.60  0.008963  (-0.092239  0.010874  0.018358)
 57:   1715.50   0.009163   46.30  0.001667  ( 0.014401 -0.038071 -0.003156)
 58:   1725.65   0.001590    8.03  0.000287  (-0.005050 -0.016175  0.000558)
 59:   1767.99   0.003547   17.93  0.000626  ( 0.010763  0.022378  0.003075)
 60:   3087.45   0.009097   45.97  0.000919  (-0.004468  0.029952  0.001543)
 61:   3104.78   0.004295   21.71  0.000432  (-0.013746  0.003594  0.015160)
 62:   3159.76   0.001119    5.65  0.000111  (-0.003715  0.008596 -0.004777)
 63:   3173.28   0.004992   25.23  0.000491  (-0.004331  0.001043 -0.021703)
 64:   3202.02   0.001882    9.51  0.000183  (-0.002977 -0.010266  0.008319)
 65:   3218.88   0.000974    4.92  0.000094  ( 0.004615 -0.001142  0.008472)
 66:   3228.53   0.001777    8.98  0.000172  ( 0.011631 -0.005503 -0.002483)
 67:   3235.47   0.002453   12.40  0.000237  ( 0.011603  0.009919 -0.001891)
 68:   3259.77   0.001553    7.85  0.000149  ( 0.005440 -0.010727 -0.002007)
 69:   3278.47   0.000395    2.00  0.000038  (-0.003570  0.004988 -0.000132)
 70:   3303.08   0.000974    4.92  0.000092  (-0.002741 -0.001237 -0.009110)
 71:   3967.69   0.020992  106.08  0.001651  (-0.019278 -0.035702  0.002189)

--------------------------
THERMOCHEMISTRY AT 298.15K
--------------------------

Temperature         ...   298.15 K
Pressure            ...     1.00 atm
Total Mass          ...   164.20 AMU
Quasi RRHO          ...     True
Cut-Off Frequency   ...     1.00 cm^-1

Throughout the following assumptions are being made:
  (1) The electronic state is orbitally nondegenerate
  (2) There are no thermally accessible electronically excited states
  (3) Hindered rotations indicated by low frequency modes are not
      treated as such but are treated as vibrations and this may
      cause some error
  (4) All equations used are the standard statistical mechanics
      equations for an ideal gas
  (5) All vibrations are strictly harmonic

freq.      30.75  E(vib)   ...       0.55
freq.      71.99  E(vib)   ...       0.50
freq.      87.70  E(vib)   ...       0.48
freq.     117.19  E(vib)   ...       0.44
freq.     177.53  E(vib)   ...       0.37
freq.     207.08  E(vib)   ...       0.34
freq.     247.56  E(vib)   ...       0.31
freq.     289.46  E(vib)   ...       0.27
freq.     304.04  E(vib)   ...       0.26
freq.     319.07  E(vib)   ...       0.25
freq.     373.26  E(vib)   ...       0.21
freq.     388.01  E(vib)   ...       0.20
freq.     415.18  E(vib)   ...       0.19
freq.     476.01  E(vib)   ...       0.15
freq.     502.23  E(vib)   ...       0.14
freq.     560.40  E(vib)   ...       0.11
freq.     576.34  E(vib)   ...       0.11
freq.     626.18  E(vib)   ...       0.09
freq.     674.26  E(vib)   ...       0.08
freq.     755.94  E(vib)   ...       0.06
freq.     780.82  E(vib)   ...       0.05
freq.     827.60  E(vib)   ...       0.04
freq.     843.26  E(vib)   ...       0.04
freq.     896.87  E(vib)   ...       0.03
freq.     932.70  E(vib)   ...       0.03
freq.     955.05  E(vib)   ...       0.03
freq.     962.28  E(vib)   ...       0.03
freq.     979.28  E(vib)   ...       0.03
freq.    1000.58  E(vib)   ...       0.02
freq.    1051.43  E(vib)   ...       0.02
freq.    1116.18  E(vib)   ...       0.01
freq.    1150.69  E(vib)   ...       0.01
freq.    1172.80  E(vib)   ...       0.01
freq.    1198.62  E(vib)   ...       0.01
freq.    1204.99  E(vib)   ...       0.01
freq.    1230.68  E(vib)   ...       0.01
freq.    1245.04  E(vib)   ...       0.01
freq.    1265.48  E(vib)   ...       0.01
freq.    1316.45  E(vib)   ...       0.01
freq.    1326.68  E(vib)   ...       0.01
freq.    1341.14  E(vib)   ...       0.01
freq.    1349.00  E(vib)   ...       0.01
freq.    1379.71  E(vib)   ...       0.01
freq.    1421.66  E(vib)   ...       0.00
freq.    1477.26  E(vib)   ...       0.00
freq.    1494.98  E(vib)   ...       0.00
freq.    1509.47  E(vib)   ...       0.00
freq.    1523.60  E(vib)   ...       0.00
freq.    1528.91  E(vib)   ...       0.00
freq.    1537.69  E(vib)   ...       0.00
freq.    1616.23  E(vib)   ...       0.00
freq.    1715.50  E(vib)   ...       0.00
freq.    1725.65  E(vib)   ...       0.00
freq.    1767.99  E(vib)   ...       0.00
freq.    3087.45  E(vib)   ...       0.00
freq.    3104.78  E(vib)   ...       0.00
freq.    3159.76  E(vib)   ...       0.00
freq.    3173.28  E(vib)   ...       0.00
freq.    3202.02  E(vib)   ...       0.00
freq.    3218.88  E(vib)   ...       0.00
freq.    3228.53  E(vib)   ...       0.00
freq.    3235.47  E(vib)   ...       0.00
freq.    3259.77  E(vib)   ...       0.00
freq.    3278.47  E(vib)   ...       0.00
freq.    3303.08  E(vib)   ...       0.00
freq.    3967.69  E(vib)   ...       0.00

------------
INNER ENERGY
------------

The inner energy is: U= E(el) + E(ZPE) + E(vib) + E(rot) + E(trans)
    E(el)   - is the total energy from the electronic structure calculation
              = E(kin-el) + E(nuc-el) + E(el-el) + E(nuc-nuc)
    E(ZPE)  - the the zero temperature vibrational energy from the frequency calculation
    E(vib)  - the the finite temperature correction to E(ZPE) due to population
              of excited vibrational states
    E(rot)  - is the rotational thermal energy
    E(trans)- is the translational thermal energy

Summary of contributions to the inner energy U:
Electronic energy                ...    -96.26553645 Eh
Zero point energy                ...      0.20336205 Eh     127.61 kcal/mol
Thermal vibrational correction   ...      0.00888952 Eh       5.58 kcal/mol
Thermal rotational correction    ...      0.00141627 Eh       0.89 kcal/mol
Thermal translational correction ...      0.00141627 Eh       0.89 kcal/mol
-----------------------------------------------------------------------
Total thermal energy                    -96.05045235 Eh

Summary of corrections to the electronic energy:
(perhaps to be used in another calculation)
Total thermal correction                  0.01172206 Eh       7.36 kcal/mol
Non-thermal (ZPE) correction              0.20336205 Eh     127.61 kcal/mol
-----------------------------------------------------------------------
Total correction                          0.21508411 Eh     134.97 kcal/mol

--------
ENTHALPY
--------

The enthalpy is H = U + kB*T
                kB is Boltzmann's constant
Total thermal energy              ...    -96.05045235 Eh
Thermal Enthalpy correction       ...      0.00094421 Eh       0.59 kcal/mol
-----------------------------------------------------------------------
Total Enthalpy                    ...    -96.04950814 Eh

Note: Only C1 symmetry has been detected, increase convergence thresholds
      if your molecule has a higher symmetry. Symmetry factor of 1.0 is
      used for the rotational entropy correction.

Note: Rotational entropy computed according to Herzberg
Infrared and Raman Spectra, Chapter V,1, Van Nostrand Reinhold, 1945
Point Group:  C1, Symmetry Number:   1
Rotational constants in cm-1:     0.047967     0.021197     0.015177

Vibrational entropy computed according to the QRRHO of S. Grimme
Chem.Eur.J. 2012 18 9955 using a reference frequency of 100.0 cm-1

-------
ENTROPY
-------

The entropy contributions are T*S = T*(S(el)+S(vib)+S(rot)+S(trans))
     S(el)   - electronic entropy
     S(vib)  - vibrational entropy
     S(rot)  - rotational entropy
     S(trans)- translational entropy
The entropies will be listed as multiplied by the temperature to get
units of energy

Electronic entropy                ...      0.00000000 Eh      0.00 kcal/mol
Vibrational entropy               ...      0.01535093 Eh      9.63 kcal/mol
Rotational entropy                ...      0.01474116 Eh      9.25 kcal/mol
Translational entropy             ...      0.01957363 Eh     12.28 kcal/mol
-----------------------------------------------------------------------
Final entropy term                ...      0.04966572 Eh     31.17 kcal/mol

                             ****ORCA TERMINATED NORMALLY****
TOTAL RUN TIME: 0 days 0 hours 18 minutes 27 seconds 140 msec
