                         Program Version 6.0.1  -  RELEASE   -
|  1> ! wB97X-3c OPT FREQ TightSCF
|  2> %pal
|  3>   nprocs 40
|  4> end
|  5> * xyz 0 1
|  6> C      3.069485     1.823152    -0.395194
|  7> C      2.305035     0.520019    -0.663525
|  8> C      2.835473    -0.682608     0.176591
|  9> C      1.614386    -1.588689     0.488703
| 10> C      0.537147    -0.974896    -0.384658
| 11> C      0.796524     0.525913    -0.338299
| 12> C      0.493045     1.225281     1.055793
| 13> C     -0.978423     1.476242     1.336165
| 14> C     -1.929828     1.072447     0.473983
| 15> C     -1.503340     0.266294    -0.737997
| 16> C     -0.257783     0.983589    -1.340179
| 17> C     -0.992653    -1.169590    -0.310198
| 18> C     -1.470104    -2.206625    -1.355437
| 19> C     -1.450173    -1.671864     1.083894
| 20> C     -3.376644     1.382837     0.735921
| 21> H      3.176946     2.020800     0.691942
| 22> H      4.089869     1.747766    -0.827059
| 23> H      2.546838     2.675676    -0.878299
| 24> H      2.436889     0.287002    -1.746067
| 25> H      3.292948    -0.342155     1.131269
| 26> H      3.600007    -1.243588    -0.403558
| 27> H      1.809250    -2.645352     0.202749
| 28> H      1.349323    -1.546434     1.565649
| 29> H      0.822938    -1.340268    -1.407952
| 30> H      0.950638     2.234070     1.065902
| 31> H      0.932147     0.665303     1.905188
| 32> H     -1.252275     2.025246     2.232766
| 33> H     -2.323865     0.225223    -1.488055
| 34> H     -0.363152     2.091488    -1.369153
| 35> H     -0.046305     0.620183    -2.371654
| 36> H     -0.989146    -3.192258    -1.174806
| 37> H     -1.218890    -1.880726    -2.388325
| 38> H     -2.572667    -2.334112    -1.297649
| 39> H     -1.021463    -1.075080     1.912361
| 40> H     -2.558130    -1.640882     1.159119
| 41> H     -1.120342    -2.721156     1.242536
| 42> H     -3.527223     2.482777     0.749173
| 43> H     -4.027581     0.944647    -0.049037
| 44> H     -3.678902     0.960328     1.717396
| 45> *
| 46>
| 47>                          ****END OF INPUT****
 Total Charge           Charge          ....    0
 Multiplicity           Mult            ....    1
 Number of Electrons    NEL             ....   84
Dispersion correction           -0.056478595
FINAL SINGLE POINT ENERGY       -99.928781277724
Dispersion correction             ... done (  0.1 sec)
Dispersion correction           -0.057228641
FINAL SINGLE POINT ENERGY       -99.941484194960
Dispersion correction             ... done (  0.1 sec)
Dispersion correction           -0.057319319
FINAL SINGLE POINT ENERGY       -99.942854031643
Dispersion correction             ... done (  0.0 sec)
FINAL SINGLE POINT ENERGY       -99.943178264989
FINAL SINGLE POINT ENERGY       -99.943224476656
FINAL SINGLE POINT ENERGY       -99.943255437445
FINAL SINGLE POINT ENERGY       -99.943440368804
FINAL SINGLE POINT ENERGY       -99.943812937464
FINAL SINGLE POINT ENERGY       -99.944357804846
FINAL SINGLE POINT ENERGY       -99.944913455945
FINAL SINGLE POINT ENERGY       -99.945547217871
FINAL SINGLE POINT ENERGY       -99.945799583098
FINAL SINGLE POINT ENERGY       -99.946115712395
FINAL SINGLE POINT ENERGY       -99.946481843627
FINAL SINGLE POINT ENERGY       -99.946743435380
FINAL SINGLE POINT ENERGY       -99.946751157251
Dispersion correction             ... done (  0.0 sec)
Dispersion correction           -0.057305809
FINAL SINGLE POINT ENERGY       -99.946767310357
Dispersion correction             ... done (  0.1 sec)
Dispersion correction           -0.057304394
FINAL SINGLE POINT ENERGY       -99.946768804822
Dispersion correction             ... done (  0.1 sec)
                    ***********************HURRAY********************

CARTESIAN COORDINATES (ANGSTROEM)
---------------------------------
  C      3.090128    1.790159   -0.449072
  C      2.289487    0.518256   -0.633286
  C      2.792144   -0.664034    0.238370
  C      1.571955   -1.575850    0.529747
  C      0.515319   -0.961223   -0.366588
  C      0.790605    0.540262   -0.317472
  C      0.530899    1.211432    1.042984
  C     -0.909971    1.479108    1.347636
  C     -1.888340    1.067148    0.556673
  C     -1.504656    0.300403   -0.681733
  C     -0.276329    1.005000   -1.296934
  C     -1.011352   -1.156302   -0.341212
  C     -1.439366   -2.104760   -1.455503
  C     -1.520690   -1.712986    0.979676
  C     -3.334908    1.308409    0.827344
  H      3.149097    2.091555    0.596076
  H      4.112829    1.648297   -0.799886
  H      2.659744    2.616453   -1.016020
  H      2.377692    0.227825   -1.684283
  H      3.221884   -0.285938    1.167279
  H      3.590481   -1.205918   -0.268677
  H      1.772235   -2.620359    0.293283
  H      1.294541   -1.536661    1.582734
  H      0.818631   -1.242124   -1.380886
  H      1.055567    2.169164    1.060349
  H      0.976019    0.628340    1.853169
  H     -1.131158    2.037178    2.251348
  H     -2.350634    0.266838   -1.370443
  H     -0.420445    2.083779   -1.350825
  H     -0.058039    0.634948   -2.300662
  H     -0.958632   -3.078161   -1.345172
  H     -1.170092   -1.709804   -2.435769
  H     -2.518874   -2.262172   -1.442936
  H     -1.192123   -1.127657    1.833999
  H     -2.610469   -1.749167    0.999750
  H     -1.158343   -2.733335    1.110557
  H     -3.788989    1.881086    0.016669
  H     -3.882095    0.366597    0.892495
  H     -3.483754    1.854215    1.757219

 Multiplicity           Mult            ....    1
 Number of Electrons    NEL             ....   84
 Basis Dimension        Dim             ....  315

ORBITAL ENERGIES
----------------

  NO   OCC          E(Eh)            E(eV)
   0   2.0000      -1.028481       -27.9864
   1   2.0000      -0.963304       -26.2128
   2   2.0000      -0.934647       -25.4331
   3   2.0000      -0.892876       -24.2964
   4   2.0000      -0.875666       -23.8281
   5   2.0000      -0.865799       -23.5596
   6   2.0000      -0.816671       -22.2228
   7   2.0000      -0.813632       -22.1400
   8   2.0000      -0.786217       -21.3941
   9   2.0000      -0.760544       -20.6955
  10   2.0000      -0.748129       -20.3576
  11   2.0000      -0.708605       -19.2821
  12   2.0000      -0.668554       -18.1923
  13   2.0000      -0.638676       -17.3793
  14   2.0000      -0.617256       -16.7964
  15   2.0000      -0.601317       -16.3627
  16   2.0000      -0.588002       -16.0004
  17   2.0000      -0.568953       -15.4820
  18   2.0000      -0.561850       -15.2887
  19   2.0000      -0.544733       -14.8229
  20   2.0000      -0.535335       -14.5672
  21   2.0000      -0.525569       -14.3015
  22   2.0000      -0.522942       -14.2300
  23   2.0000      -0.515687       -14.0326
  24   2.0000      -0.513385       -13.9699
  25   2.0000      -0.506155       -13.7732
  26   2.0000      -0.499034       -13.5794
  27   2.0000      -0.491789       -13.3823
  28   2.0000      -0.483551       -13.1581
  29   2.0000      -0.474714       -12.9176
  30   2.0000      -0.464931       -12.6514
  31   2.0000      -0.459685       -12.5087
  32   2.0000      -0.451741       -12.2925
  33   2.0000      -0.430220       -11.7069
  34   2.0000      -0.424306       -11.5460
  35   2.0000      -0.420995       -11.4559
  36   2.0000      -0.414013       -11.2659
  37   2.0000      -0.399933       -10.8827
  38   2.0000      -0.397845       -10.8259
  39   2.0000      -0.383779       -10.4432
  40   2.0000      -0.375727       -10.2240
  41   2.0000      -0.321542        -8.7496
  42   0.0000       0.086731         2.3601
  43   0.0000       0.092658         2.5214
  44   0.0000       0.097114         2.6426
  45   0.0000       0.099936         2.7194
  46   0.0000       0.105011         2.8575

MULLIKEN ATOMIC CHARGES
-----------------------
   0 C :   -0.036186
   1 C :   -0.060529
   2 C :   -0.038984
   3 C :   -0.013662
   4 C :   -0.004211
   5 C :   -0.182845
   6 C :   -0.024773
   7 C :   -0.011079
   8 C :   -0.065300
   9 C :   -0.042467
  10 C :    0.053074
  11 C :   -0.179944
  12 C :   -0.008381
  13 C :    0.020494
  14 C :   -0.034270
  15 H :    0.021545
  16 H :    0.030599
  17 H :    0.028698
  18 H :    0.027837
  19 H :    0.025414
  20 H :    0.034694
  21 H :    0.029569
  22 H :    0.024016
  23 H :    0.014697
  24 H :    0.044904
  25 H :    0.028579
  26 H :    0.010395
  27 H :    0.022527
  28 H :    0.035085
  29 H :    0.016677
  30 H :    0.026547
  31 H :    0.022807
  32 H :    0.026846
  33 H :    0.029356
  34 H :    0.014694
  35 H :    0.024773
  36 H :    0.037735
  37 H :    0.025836
  38 H :    0.025231
Sum of atomic charges:    0.0000000

LOEWDIN ATOMIC CHARGES
----------------------
   0 C :   -0.113865
   1 C :   -0.062907
   2 C :   -0.055323
   3 C :   -0.068847
   4 C :   -0.050001
   5 C :   -0.051521
   6 C :   -0.068112
   7 C :   -0.049445
   8 C :   -0.044524
   9 C :   -0.033839
  10 C :   -0.055643
  11 C :   -0.049784
  12 C :   -0.110622
  13 C :   -0.103879
  14 C :   -0.109117
  15 H :    0.038223
  16 H :    0.045840
  17 H :    0.044473
  18 H :    0.044423
  19 H :    0.037619
  20 H :    0.038605
  21 H :    0.038187
  22 H :    0.034333
  23 H :    0.051319
  24 H :    0.048998
  25 H :    0.045203
  26 H :    0.034557
  27 H :    0.041931
  28 H :    0.042902
  29 H :    0.040543
  30 H :    0.043702
  31 H :    0.042080
  32 H :    0.042562
  33 H :    0.041736
  34 H :    0.040984
  35 H :    0.045051
  36 H :    0.049021
  37 H :    0.045387
  38 H :    0.049755

  Mayer bond orders larger than 0.100000
B(  0-C ,  1-C ) :   1.0158 B(  0-C , 15-H ) :   0.9882 B(  0-C , 16-H ) :   0.9896
B(  0-C , 17-H ) :   0.9908 B(  1-C ,  2-C ) :   0.9720 B(  1-C ,  5-C ) :   1.0207
B(  1-C , 18-H ) :   0.9966 B(  2-C ,  3-C ) :   0.9893 B(  2-C , 19-H ) :   0.9993
B(  2-C , 20-H ) :   1.0028 B(  3-C ,  4-C ) :   0.9990 B(  3-C , 21-H ) :   0.9989
B(  3-C , 22-H ) :   0.9942 B(  4-C ,  5-C ) :   0.9774 B(  4-C , 11-C ) :   0.9839
B(  4-C , 23-H ) :   0.9884 B(  5-C ,  6-C ) :   0.9744 B(  5-C , 10-C ) :   0.9945
B(  6-C ,  7-C ) :   1.0449 B(  6-C , 24-H ) :   0.9800 B(  6-C , 25-H ) :   0.9761
B(  7-C ,  8-C ) :   1.9095 B(  7-C , 26-H ) :   0.9831 B(  8-C ,  9-C ) :   1.0069
B(  8-C , 14-C ) :   1.0372 B(  9-C , 10-C ) :   0.9950 B(  9-C , 11-C ) :   0.9612
B(  9-C , 27-H ) :   0.9986 B( 10-C , 28-H ) :   0.9940 B( 10-C , 29-H ) :   0.9941
B( 11-C , 12-C ) :   1.0136 B( 11-C , 13-C ) :   1.0193 B( 12-C , 30-H ) :   0.9924
B( 12-C , 31-H ) :   0.9918 B( 12-C , 32-H ) :   0.9917 B( 13-C , 33-H ) :   0.9875
B( 13-C , 34-H ) :   0.9876 B( 13-C , 35-H ) :   0.9873 B( 14-C , 36-H ) :   0.9783
B( 14-C , 37-H ) :   0.9788 B( 14-C , 38-H ) :   0.9891

Dispersion correction           -0.057304074
FINAL SINGLE POINT ENERGY       -99.946769242700

DIPOLE MOMENT
-------------

Method             : SCF
Type of density    : Electron Density
Multiplicity       :   1
Irrep              :   0
Energy             :   -99.8894651689105046 Eh
Relativity type    :
Basis              : AO
                                X                 Y                 Z
Electronic contribution:     -0.848043911       2.966214215      -0.126241654
Nuclear contribution   :      0.877861384      -3.007101201       0.055735052
                        -----------------------------------------
Total Dipole Moment    :      0.029817473      -0.040886986      -0.070506603
                        -----------------------------------------
Magnitude (a.u.)       :      0.086787144
Magnitude (Debye)      :      0.220595388

VIBRATIONAL FREQUENCIES
-----------------------

Scaling factor for frequencies =  1.000000000  (already applied!)

     0:       0.00 cm**-1
     1:       0.00 cm**-1
     2:       0.00 cm**-1
     3:       0.00 cm**-1
     4:       0.00 cm**-1
     5:       0.00 cm**-1
     6:      77.11 cm**-1
     7:     124.23 cm**-1
     8:     149.51 cm**-1
     9:     185.61 cm**-1
    10:     198.91 cm**-1
    11:     207.22 cm**-1
    12:     234.80 cm**-1
    13:     245.13 cm**-1
    14:     261.02 cm**-1
    15:     268.30 cm**-1
    16:     289.25 cm**-1
    17:     301.37 cm**-1
    18:     310.45 cm**-1
    19:     337.21 cm**-1
    20:     350.59 cm**-1
    21:     407.69 cm**-1
    22:     409.72 cm**-1
    23:     444.09 cm**-1
    24:     464.88 cm**-1
    25:     523.16 cm**-1
    26:     560.10 cm**-1
    27:     575.87 cm**-1
    28:     598.11 cm**-1
    29:     623.88 cm**-1
    30:     649.69 cm**-1
    31:     678.78 cm**-1
    32:     772.28 cm**-1
    33:     822.43 cm**-1
    34:     834.06 cm**-1
    35:     847.29 cm**-1
    36:     874.96 cm**-1
    37:     906.98 cm**-1
    38:     939.15 cm**-1
    39:     952.98 cm**-1
    40:     959.02 cm**-1
    41:     974.81 cm**-1
    42:     985.26 cm**-1
    43:    1001.09 cm**-1
    44:    1007.14 cm**-1
    45:    1025.69 cm**-1
    46:    1030.07 cm**-1
    47:    1044.52 cm**-1
    48:    1063.51 cm**-1
    49:    1088.62 cm**-1
    50:    1090.58 cm**-1
    51:    1103.68 cm**-1
    52:    1127.34 cm**-1
    53:    1145.34 cm**-1
    54:    1147.60 cm**-1
    55:    1185.75 cm**-1
    56:    1189.69 cm**-1
    57:    1206.62 cm**-1
    58:    1221.27 cm**-1
    59:    1228.38 cm**-1
    60:    1258.48 cm**-1
    61:    1264.11 cm**-1
    62:    1279.10 cm**-1
    63:    1294.81 cm**-1
    64:    1306.60 cm**-1
    65:    1326.31 cm**-1
    66:    1340.70 cm**-1
    67:    1344.32 cm**-1
    68:    1357.12 cm**-1
    69:    1359.76 cm**-1
    70:    1371.53 cm**-1
    71:    1394.43 cm**-1
    72:    1419.96 cm**-1
    73:    1427.59 cm**-1
    74:    1432.72 cm**-1
    75:    1439.77 cm**-1
    76:    1447.03 cm**-1
    77:    1450.54 cm**-1
    78:    1454.94 cm**-1
    79:    1476.96 cm**-1
    80:    1504.91 cm**-1
    81:    1507.34 cm**-1
    82:    1514.28 cm**-1
    83:    1515.76 cm**-1
    84:    1519.55 cm**-1
    85:    1522.15 cm**-1
    86:    1527.17 cm**-1
    87:    1531.19 cm**-1
    88:    1534.52 cm**-1
    89:    1537.31 cm**-1
    90:    1540.54 cm**-1
    91:    1552.50 cm**-1
    92:    1814.17 cm**-1
    93:    3054.58 cm**-1
    94:    3083.79 cm**-1
    95:    3084.56 cm**-1
    96:    3091.82 cm**-1
    97:    3093.42 cm**-1
    98:    3096.26 cm**-1
    99:    3098.35 cm**-1
   100:    3103.61 cm**-1
   101:    3110.01 cm**-1
   102:    3121.99 cm**-1
   103:    3125.30 cm**-1
   104:    3135.20 cm**-1
   105:    3158.79 cm**-1
   106:    3167.71 cm**-1
   107:    3168.77 cm**-1
   108:    3172.60 cm**-1
   109:    3176.75 cm**-1
   110:    3177.55 cm**-1
   111:    3178.39 cm**-1
   112:    3178.88 cm**-1
   113:    3190.24 cm**-1
   114:    3200.14 cm**-1
   115:    3213.73 cm**-1
   116:    3215.00 cm**-1

IR SPECTRUM
-----------

 Mode   freq       eps      Int      T**2         TX        TY        TZ
       cm**-1   L/(mol*cm) km/mol    a.u.
----------------------------------------------------------------------------
  6:     77.11   0.000009    0.04  0.000034  (-0.000984  0.005103 -0.002721)
  7:    124.23   0.000022    0.11  0.000055  (-0.000667 -0.006652  0.003241)
  8:    149.51   0.000091    0.46  0.000190  (-0.000716 -0.012145  0.006461)
  9:    185.61   0.000041    0.21  0.000070  (-0.004525  0.005168 -0.004739)
 10:    198.91   0.000054    0.28  0.000085  (-0.004532 -0.007997 -0.000993)
 11:    207.22   0.000046    0.23  0.000069  ( 0.000339  0.007366 -0.003828)
 12:    234.80   0.000016    0.08  0.000022  ( 0.002534 -0.002860  0.002680)
 13:    245.13   0.000016    0.08  0.000020  (-0.001816 -0.004080 -0.000557)
 14:    261.02   0.000004    0.02  0.000005  ( 0.001181 -0.001046  0.001452)
 15:    268.30   0.000018    0.09  0.000020  ( 0.000948 -0.003015  0.003233)
 16:    289.25   0.000191    0.97  0.000206  (-0.003021  0.011436 -0.008145)
 17:    301.37   0.000062    0.31  0.000064  (-0.001489  0.006829 -0.003927)
 18:    310.45   0.000047    0.24  0.000047  ( 0.000974 -0.006655  0.001305)
 19:    337.21   0.000053    0.27  0.000049  ( 0.002353  0.006331  0.001868)
 20:    350.59   0.000034    0.17  0.000030  ( 0.002955  0.004527 -0.000972)
 21:    407.69   0.000288    1.45  0.000220  (-0.002725  0.014415 -0.002249)
 22:    409.72   0.000037    0.19  0.000028  ( 0.002703  0.002424 -0.003871)
 23:    444.09   0.000023    0.11  0.000016  ( 0.001011  0.000789  0.003780)
 24:    464.88   0.000010    0.05  0.000007  (-0.000040  0.000072 -0.002650)
 25:    523.16   0.000028    0.14  0.000017  ( 0.003734 -0.001643  0.000562)
 26:    560.10   0.000210    1.06  0.000117  ( 0.002373 -0.007655 -0.007248)
 27:    575.87   0.000085    0.43  0.000046  ( 0.005034 -0.004420 -0.001118)
 28:    598.11   0.000356    1.80  0.000186  ( 0.005939  0.011190 -0.005006)
 29:    623.88   0.000226    1.14  0.000113  (-0.000620 -0.007720  0.007280)
 30:    649.69   0.000057    0.29  0.000027  (-0.000850  0.004947 -0.001436)
 31:    678.78   0.000018    0.09  0.000008  (-0.000850 -0.002682 -0.000611)
 32:    772.28   0.000020    0.10  0.000008  ( 0.000877  0.000578 -0.002621)
 33:    822.43   0.001868    9.44  0.000709  (-0.001304 -0.023304  0.012813)
 34:    834.06   0.000184    0.93  0.000069  (-0.002484  0.006920  0.003843)
 35:    847.29   0.000819    4.14  0.000302  ( 0.002160 -0.014792  0.008842)
 36:    874.96   0.000035    0.18  0.000012  ( 0.001692  0.002641 -0.001591)
 37:    906.98   0.000111    0.56  0.000038  (-0.000740 -0.001185  0.006013)
 38:    939.15   0.000232    1.17  0.000077  ( 0.005120  0.005851 -0.004060)
 39:    952.98   0.000197    1.00  0.000065  ( 0.000352 -0.007514 -0.002842)
 40:    959.02   0.000797    4.03  0.000259  ( 0.001346  0.005228 -0.015173)
 41:    974.81   0.000187    0.95  0.000060  (-0.001101 -0.003653 -0.006732)
 42:    985.26   0.000042    0.21  0.000013  (-0.002943  0.001844 -0.001076)
 43:   1001.09   0.000139    0.70  0.000043  (-0.001152  0.000036  0.006480)
 44:   1007.14   0.000334    1.69  0.000103  (-0.005221  0.007686 -0.004125)
 45:   1025.69   0.000065    0.33  0.000020  ( 0.001905 -0.003750  0.001419)
 46:   1030.07   0.000340    1.72  0.000103  (-0.009146  0.004307  0.000832)
 47:   1044.52   0.000608    3.07  0.000182  (-0.002620  0.013179  0.001023)
 48:   1063.51   0.001013    5.12  0.000297  ( 0.003271  0.012559  0.011349)
 49:   1088.62   0.000384    1.94  0.000110  (-0.003151 -0.009944 -0.001068)
 50:   1090.58   0.000276    1.40  0.000079  ( 0.005927  0.002295  0.006223)
 51:   1103.68   0.000822    4.15  0.000232  (-0.011797 -0.000724 -0.009629)
 52:   1127.34   0.000988    4.99  0.000274  ( 0.015961  0.000951 -0.004233)
 53:   1145.34   0.000218    1.10  0.000059  (-0.007496  0.000688 -0.001643)
 54:   1147.60   0.000019    0.10  0.000005  ( 0.000065  0.000158  0.002296)
 55:   1185.75   0.000307    1.55  0.000081  (-0.003618  0.006304  0.005286)
 56:   1189.69   0.000130    0.66  0.000034  (-0.005648 -0.001087  0.001045)
 57:   1206.62   0.000861    4.35  0.000223  ( 0.005961 -0.013583  0.001589)
 58:   1221.27   0.000423    2.14  0.000108  (-0.008980 -0.004114 -0.003253)
 59:   1228.38   0.000448    2.27  0.000114  (-0.001390 -0.008390 -0.006448)
 60:   1258.48   0.000181    0.91  0.000045  ( 0.003906  0.003080  0.004481)
 61:   1264.11   0.000287    1.45  0.000071  ( 0.005196 -0.006426  0.001621)
 62:   1279.10   0.000137    0.69  0.000033  (-0.004486 -0.003590 -0.000547)
 63:   1294.81   0.000036    0.18  0.000009  (-0.000273  0.002710  0.001153)
 64:   1306.60   0.000480    2.42  0.000115  ( 0.010244  0.002874  0.001178)
 65:   1326.31   0.000055    0.28  0.000013  (-0.000600 -0.000926  0.003419)
 66:   1340.70   0.000208    1.05  0.000048  (-0.002317 -0.001381  0.006420)
 67:   1344.32   0.000531    2.68  0.000123  (-0.004724 -0.004711 -0.008876)
 68:   1357.12   0.000140    0.71  0.000032  (-0.004553  0.001868 -0.002826)
 69:   1359.76   0.000045    0.23  0.000010  ( 0.001054  0.002677  0.001458)
 70:   1371.53   0.000780    3.94  0.000177  (-0.002491 -0.013020  0.001319)
 71:   1394.43   0.000242    1.22  0.000054  (-0.002040 -0.002805 -0.006485)
 72:   1419.96   0.000208    1.05  0.000046  ( 0.000030 -0.001890  0.006494)
 73:   1427.59   0.000385    1.95  0.000084  ( 0.007510  0.003744  0.003708)
 74:   1432.72   0.002421   12.24  0.000527  (-0.001717 -0.000921  0.022883)
 75:   1439.77   0.000553    2.79  0.000120  ( 0.006102 -0.005798 -0.007000)
 76:   1447.03   0.001656    8.37  0.000357  (-0.004827 -0.018196 -0.001627)
 77:   1450.54   0.001074    5.43  0.000231  (-0.006625  0.012301  0.005981)
 78:   1454.94   0.003266   16.51  0.000701  (-0.020767 -0.016397  0.000657)
 79:   1476.96   0.000497    2.51  0.000105  (-0.002182 -0.003081 -0.009530)
 80:   1504.91   0.001663    8.41  0.000345  (-0.011175 -0.004627 -0.014093)
 81:   1507.34   0.002058   10.40  0.000426  (-0.000762 -0.016845  0.011908)
 82:   1514.28   0.000032    0.16  0.000007  (-0.000603  0.002147  0.001262)
 83:   1515.76   0.000200    1.01  0.000041  (-0.000037 -0.000661  0.006375)
 84:   1519.55   0.000778    3.93  0.000160  (-0.010774 -0.005961  0.002848)
 85:   1522.15   0.002051   10.36  0.000420  ( 0.000078 -0.006390 -0.019482)
 86:   1527.17   0.000402    2.03  0.000082  (-0.008320  0.002983  0.002025)
 87:   1531.19   0.000914    4.62  0.000186  ( 0.000802  0.003647  0.013124)
 88:   1534.52   0.002562   12.95  0.000521  ( 0.018274  0.011001 -0.008126)
 89:   1537.31   0.001813    9.16  0.000368  ( 0.004363 -0.008699  0.016533)
 90:   1540.54   0.003265   16.50  0.000661  ( 0.015002 -0.020241  0.005158)
 91:   1552.50   0.001985   10.03  0.000399  ( 0.012419 -0.003146  0.015323)
 92:   1814.17   0.000187    0.95  0.000032  ( 0.002495  0.003938  0.003236)
 93:   3054.58   0.002560   12.94  0.000262  ( 0.008555 -0.003576 -0.013249)
 94:   3083.79   0.001558    7.87  0.000158  (-0.002309  0.002899  0.011995)
 95:   3084.56   0.010679   53.97  0.001080  ( 0.007094  0.019022  0.025849)
 96:   3091.82   0.006059   30.62  0.000612  (-0.023553  0.007523 -0.000456)
 97:   3093.42   0.002437   12.32  0.000246  (-0.004439  0.003407 -0.014647)
 98:   3096.26   0.008308   41.99  0.000837  ( 0.021211  0.019219  0.004252)
 99:   3098.35   0.007522   38.02  0.000758  ( 0.017443  0.017662 -0.011894)
100:   3103.61   0.006791   34.32  0.000683  (-0.012431 -0.009247  0.021041)
101:   3110.01   0.008145   41.16  0.000817  ( 0.027192  0.008822  0.000325)
102:   3121.99   0.012074   61.01  0.001207  (-0.023798  0.003759 -0.025027)
103:   3125.30   0.005994   30.29  0.000598  (-0.010986  0.017375 -0.013262)
104:   3135.20   0.005126   25.91  0.000510  ( 0.003200 -0.019734  0.010515)
105:   3158.79   0.000426    2.15  0.000042  (-0.004582  0.002015  0.004127)
106:   3167.71   0.002527   12.77  0.000249  ( 0.002266 -0.014060  0.006796)
107:   3168.77   0.003858   19.50  0.000380  (-0.002152  0.019019  0.003682)
108:   3172.60   0.000544    2.75  0.000053  ( 0.003082 -0.003008  0.005912)
109:   3176.75   0.006228   31.48  0.000612  ( 0.022003 -0.011110  0.002061)
110:   3177.55   0.004069   20.56  0.000400  ( 0.000519  0.019865 -0.002170)
111:   3178.39   0.008244   41.66  0.000809  ( 0.015925 -0.007871 -0.022222)
112:   3178.88   0.005611   28.35  0.000551  (-0.020043  0.011426  0.004301)
113:   3190.24   0.004694   23.72  0.000459  (-0.001378  0.000276  0.021382)
114:   3200.14   0.002086   10.54  0.000203  (-0.000034 -0.007507 -0.012126)
115:   3213.73   0.005365   27.11  0.000521  ( 0.005588  0.014487  0.016729)
116:   3215.00   0.003320   16.78  0.000322  ( 0.009839 -0.007783 -0.012840)

--------------------------
THERMOCHEMISTRY AT 298.15K
--------------------------

Temperature         ...   298.15 K
Pressure            ...     1.00 atm
Total Mass          ...   204.36 AMU
Quasi RRHO          ...     True
Cut-Off Frequency   ...     1.00 cm^-1

Throughout the following assumptions are being made:
  (1) The electronic state is orbitally nondegenerate
  (2) There are no thermally accessible electronically excited states
  (3) Hindered rotations indicated by low frequency modes are not
      treated as such but are treated as vibrations and this may
      cause some error
  (4) All equations used are the standard statistical mechanics
      equations for an ideal gas
  (5) All vibrations are strictly harmonic

freq.      77.11  E(vib)   ...       0.49
freq.     124.23  E(vib)   ...       0.43
freq.     149.51  E(vib)   ...       0.40
freq.     185.61  E(vib)   ...       0.37
freq.     198.91  E(vib)   ...       0.35
freq.     207.22  E(vib)   ...       0.34
freq.     234.80  E(vib)   ...       0.32
freq.     245.13  E(vib)   ...       0.31
freq.     261.02  E(vib)   ...       0.30
freq.     268.30  E(vib)   ...       0.29
freq.     289.25  E(vib)   ...       0.27
freq.     301.37  E(vib)   ...       0.26
freq.     310.45  E(vib)   ...       0.26
freq.     337.21  E(vib)   ...       0.24
freq.     350.59  E(vib)   ...       0.23
freq.     407.69  E(vib)   ...       0.19
freq.     409.72  E(vib)   ...       0.19
freq.     444.09  E(vib)   ...       0.17
freq.     464.88  E(vib)   ...       0.16
freq.     523.16  E(vib)   ...       0.13
freq.     560.10  E(vib)   ...       0.12
freq.     575.87  E(vib)   ...       0.11
freq.     598.11  E(vib)   ...       0.10
freq.     623.88  E(vib)   ...       0.09
freq.     649.69  E(vib)   ...       0.08
freq.     678.78  E(vib)   ...       0.08
freq.     772.28  E(vib)   ...       0.05
freq.     822.43  E(vib)   ...       0.05
freq.     834.06  E(vib)   ...       0.04
freq.     847.29  E(vib)   ...       0.04
freq.     874.96  E(vib)   ...       0.04
freq.     906.98  E(vib)   ...       0.03
freq.     939.15  E(vib)   ...       0.03
freq.     952.98  E(vib)   ...       0.03
freq.     959.02  E(vib)   ...       0.03
freq.     974.81  E(vib)   ...       0.03
freq.     985.26  E(vib)   ...       0.02
freq.    1001.09  E(vib)   ...       0.02
freq.    1007.14  E(vib)   ...       0.02
freq.    1025.69  E(vib)   ...       0.02
freq.    1030.07  E(vib)   ...       0.02
freq.    1044.52  E(vib)   ...       0.02
freq.    1063.51  E(vib)   ...       0.02
freq.    1088.62  E(vib)   ...       0.02
freq.    1090.58  E(vib)   ...       0.02
freq.    1103.68  E(vib)   ...       0.02
freq.    1127.34  E(vib)   ...       0.01
freq.    1145.34  E(vib)   ...       0.01
freq.    1147.60  E(vib)   ...       0.01
freq.    1185.75  E(vib)   ...       0.01
freq.    1189.69  E(vib)   ...       0.01
freq.    1206.62  E(vib)   ...       0.01
freq.    1221.27  E(vib)   ...       0.01
freq.    1228.38  E(vib)   ...       0.01
freq.    1258.48  E(vib)   ...       0.01
freq.    1264.11  E(vib)   ...       0.01
freq.    1279.10  E(vib)   ...       0.01
freq.    1294.81  E(vib)   ...       0.01
freq.    1306.60  E(vib)   ...       0.01
freq.    1326.31  E(vib)   ...       0.01
freq.    1340.70  E(vib)   ...       0.01
freq.    1344.32  E(vib)   ...       0.01
freq.    1357.12  E(vib)   ...       0.01
freq.    1359.76  E(vib)   ...       0.01
freq.    1371.53  E(vib)   ...       0.01
freq.    1394.43  E(vib)   ...       0.00
freq.    1419.96  E(vib)   ...       0.00
freq.    1427.59  E(vib)   ...       0.00
freq.    1432.72  E(vib)   ...       0.00
freq.    1439.77  E(vib)   ...       0.00
freq.    1447.03  E(vib)   ...       0.00
freq.    1450.54  E(vib)   ...       0.00
freq.    1454.94  E(vib)   ...       0.00
freq.    1476.96  E(vib)   ...       0.00
freq.    1504.91  E(vib)   ...       0.00
freq.    1507.34  E(vib)   ...       0.00
freq.    1514.28  E(vib)   ...       0.00
freq.    1515.76  E(vib)   ...       0.00
freq.    1519.55  E(vib)   ...       0.00
freq.    1522.15  E(vib)   ...       0.00
freq.    1527.17  E(vib)   ...       0.00
freq.    1531.19  E(vib)   ...       0.00
freq.    1534.52  E(vib)   ...       0.00
freq.    1537.31  E(vib)   ...       0.00
freq.    1540.54  E(vib)   ...       0.00
freq.    1552.50  E(vib)   ...       0.00
freq.    1814.17  E(vib)   ...       0.00
freq.    3054.58  E(vib)   ...       0.00
freq.    3083.79  E(vib)   ...       0.00
freq.    3084.56  E(vib)   ...       0.00
freq.    3091.82  E(vib)   ...       0.00
freq.    3093.42  E(vib)   ...       0.00
freq.    3096.26  E(vib)   ...       0.00
freq.    3098.35  E(vib)   ...       0.00
freq.    3103.61  E(vib)   ...       0.00
freq.    3110.01  E(vib)   ...       0.00
freq.    3121.99  E(vib)   ...       0.00
freq.    3125.30  E(vib)   ...       0.00
freq.    3135.20  E(vib)   ...       0.00
freq.    3158.79  E(vib)   ...       0.00
freq.    3167.71  E(vib)   ...       0.00
freq.    3168.77  E(vib)   ...       0.00
freq.    3172.60  E(vib)   ...       0.00
freq.    3176.75  E(vib)   ...       0.00
freq.    3177.55  E(vib)   ...       0.00
freq.    3178.39  E(vib)   ...       0.00
freq.    3178.88  E(vib)   ...       0.00
freq.    3190.24  E(vib)   ...       0.00
freq.    3200.14  E(vib)   ...       0.00
freq.    3213.73  E(vib)   ...       0.00
freq.    3215.00  E(vib)   ...       0.00

------------
INNER ENERGY
------------

The inner energy is: U= E(el) + E(ZPE) + E(vib) + E(rot) + E(trans)
    E(el)   - is the total energy from the electronic structure calculation
              = E(kin-el) + E(nuc-el) + E(el-el) + E(nuc-nuc)
    E(ZPE)  - the the zero temperature vibrational energy from the frequency calculation
    E(vib)  - the the finite temperature correction to E(ZPE) due to population
              of excited vibrational states
    E(rot)  - is the rotational thermal energy
    E(trans)- is the translational thermal energy

Summary of contributions to the inner energy U:
Electronic energy                ...    -99.94676924 Eh
Zero point energy                ...      0.36728265 Eh     230.47 kcal/mol
Thermal vibrational correction   ...      0.01125737 Eh       7.06 kcal/mol
Thermal rotational correction    ...      0.00141627 Eh       0.89 kcal/mol
Thermal translational correction ...      0.00141627 Eh       0.89 kcal/mol
-----------------------------------------------------------------------
Total thermal energy                    -99.56539668 Eh

Summary of corrections to the electronic energy:
(perhaps to be used in another calculation)
Total thermal correction                  0.01408991 Eh       8.84 kcal/mol
Non-thermal (ZPE) correction              0.36728265 Eh     230.47 kcal/mol
-----------------------------------------------------------------------
Total correction                          0.38137257 Eh     239.31 kcal/mol

Rotational constants in cm-1:     0.031716     0.018799     0.015138

                             ****ORCA TERMINATED NORMALLY****
TOTAL RUN TIME: 0 days 0 hours 40 minutes 25 seconds 83 msec
