                         Program Version 6.0.1  -  RELEASE   -
|  1> ! wB97X-3c OPT FREQ TightSCF
|  2> %pal
|  3>   nprocs 40
|  4> end
|  5> * xyz 0 1
|  6> C     -5.315350    -0.350041    -0.886688
|  7> C     -4.110866     0.268103    -0.233119
|  8> C     -3.746409    -0.108762     1.003720
|  9> C     -2.525672     0.497658     1.644471
| 10> C     -1.337024     0.632305     0.649023
| 11> C     -1.770211     0.831561    -0.837001
| 12> C     -3.239018     1.254697    -0.972549
| 13> C     -0.365675    -0.534255     0.784140
| 14> C     -0.766886    -1.795480     0.543352
| 15> C      1.069046    -0.278832     1.190464
| 16> C      1.992642    -0.320878    -0.031636
| 17> C      3.426062    -0.048095     0.355293
| 18> C      4.437266    -0.020310    -0.538433
| 19> C      5.832666     0.261587    -0.044810
| 20> C      4.197963    -0.264044    -2.009749
| 21> H     -5.178332    -1.449463    -0.962945
| 22> H     -5.472958     0.057631    -1.906919
| 23> H     -6.220879    -0.136537    -0.280464
| 24> H     -4.313547    -0.863052     1.542187
| 25> H     -2.808325     1.512034     2.002117
| 26> H     -2.237488    -0.091193     2.542489
| 27> H     -0.802011     1.562619     0.942933
| 28> H     -1.632399    -0.104383    -1.422344
| 29> H     -1.124033     1.601145    -1.313031
| 30> H     -3.376034     2.266601    -0.533086
| 31> H     -3.511952     1.305808    -2.048305
| 32> H     -1.787388    -2.012657     0.245453
| 33> H     -0.075674    -2.627499     0.638690
| 34> H      1.388272    -1.040550     1.936196
| 35> H      1.159126     0.714365     1.681454
| 36> H      1.928862    -1.323817    -0.506685
| 37> H      1.658747     0.446599    -0.763732
| 38> H      3.652812     0.134311     1.403897
| 39> H      6.570459     0.257065    -0.873911
| 40> H      5.863750     1.258932     0.442941
| 41> H      6.133351    -0.512661     0.692543
| 42> H      5.141134    -0.203388    -2.591417
| 43> H      3.767239    -1.275951    -2.161441
| 44> H      3.498736     0.498829    -2.411751
| 45> *
| 46>
| 47>                          ****END OF INPUT****
 Total Charge           Charge          ....    0
 Multiplicity           Mult            ....    1
 Number of Electrons    NEL             ....   84
Dispersion correction           -0.046720789
FINAL SINGLE POINT ENERGY       -99.875996150862
Dispersion correction             ... done (  0.1 sec)
Dispersion correction           -0.047054267
FINAL SINGLE POINT ENERGY       -99.885858136542
Dispersion correction             ... done (  0.1 sec)
Dispersion correction           -0.047120804
FINAL SINGLE POINT ENERGY       -99.887436270333
Dispersion correction             ... done (  0.1 sec)
FINAL SINGLE POINT ENERGY       -99.888954366686
FINAL SINGLE POINT ENERGY       -99.889545017515
FINAL SINGLE POINT ENERGY       -99.889760593584
FINAL SINGLE POINT ENERGY       -99.889889909666
FINAL SINGLE POINT ENERGY       -99.889977483604
FINAL SINGLE POINT ENERGY       -99.890400118498
FINAL SINGLE POINT ENERGY       -99.890524599553
FINAL SINGLE POINT ENERGY       -99.900380742783
FINAL SINGLE POINT ENERGY       -99.900472419990
FINAL SINGLE POINT ENERGY       -99.900500758335
FINAL SINGLE POINT ENERGY       -99.900521379102
FINAL SINGLE POINT ENERGY       -99.900530921852
FINAL SINGLE POINT ENERGY       -99.900544068520
FINAL SINGLE POINT ENERGY       -99.900546807502
Dispersion correction             ... done (  0.1 sec)
Dispersion correction           -0.047652473
FINAL SINGLE POINT ENERGY       -99.900549645769
Dispersion correction             ... done (  0.1 sec)
Dispersion correction           -0.047660952
FINAL SINGLE POINT ENERGY       -99.900550209835
Dispersion correction             ... done (  0.1 sec)
                    ***********************HURRAY********************

CARTESIAN COORDINATES (ANGSTROEM)
---------------------------------
  C     -5.342288    0.141648    0.026642
  C     -3.901839    0.501142   -0.112918
  C     -3.110675    0.827946    0.901454
  C     -1.687202    1.191199    0.622335
  C     -1.007448    0.176528   -0.324011
  C     -1.957534   -0.290738   -1.438859
  C     -3.275523    0.478801   -1.476780
  C     -0.411898   -0.940650    0.505566
  C     -1.099605   -1.997590    0.915903
  C      1.024480   -0.749489    0.898156
  C      1.988723   -1.062464   -0.246244
  C      3.416286   -0.851402    0.144696
  C      4.196235    0.182696   -0.155970
  C      5.610896    0.250740    0.331320
  C      3.769691    1.355596   -0.982748
  H     -5.528593   -0.867903   -0.344163
  H     -5.968473    0.814942   -0.561224
  H     -5.667830    0.191587    1.063943
  H     -3.483387    0.849660    1.918223
  H     -1.657723    2.178149    0.150727
  H     -1.113812    1.276441    1.544404
  H     -0.173692    0.704616   -0.790230
  H     -2.188272   -1.345321   -1.305390
  H     -1.456208   -0.213072   -2.404375
  H     -3.098141    1.505119   -1.814316
  H     -3.946545    0.026851   -2.207893
  H     -2.133233   -2.157828    0.642233
  H     -0.645062   -2.737905    1.562059
  H      1.266442   -1.380866    1.754006
  H      1.186283    0.284028    1.216279
  H      1.845931   -2.104958   -0.537580
  H      1.730852   -0.468640   -1.121946
  H      3.842683   -1.629350    0.771729
  H      5.768514    1.141191    0.942265
  H      5.875042   -0.621655    0.925013
  H      6.306103    0.315984   -0.507524
  H      4.384314    1.433475   -1.881377
  H      2.728862    1.309892   -1.288526
  H      3.913648    2.281601   -0.423532

 Multiplicity           Mult            ....    1
 Number of Electrons    NEL             ....   84
 Basis Dimension        Dim             ....  315

ORBITAL ENERGIES
----------------

  NO   OCC          E(Eh)            E(eV)
   0   2.0000      -0.993025       -27.0216
   1   2.0000      -0.963939       -26.2301
   2   2.0000      -0.943951       -25.6862
   3   2.0000      -0.901233       -24.5238
   4   2.0000      -0.876014       -23.8375
   5   2.0000      -0.869282       -23.6544
   6   2.0000      -0.827558       -22.5190
   7   2.0000      -0.815832       -22.1999
   8   2.0000      -0.806434       -21.9442
   9   2.0000      -0.750983       -20.4353
  10   2.0000      -0.740425       -20.1480
  11   2.0000      -0.717865       -19.5341
  12   2.0000      -0.648306       -17.6413
  13   2.0000      -0.635918       -17.3042
  14   2.0000      -0.615223       -16.7411
  15   2.0000      -0.604129       -16.4392
  16   2.0000      -0.591865       -16.1055
  17   2.0000      -0.584886       -15.9155
  18   2.0000      -0.559569       -15.2266
  19   2.0000      -0.552430       -15.0324
  20   2.0000      -0.546825       -14.8799
  21   2.0000      -0.544841       -14.8259
  22   2.0000      -0.532598       -14.4927
  23   2.0000      -0.520319       -14.1586
  24   2.0000      -0.511042       -13.9061
  25   2.0000      -0.502093       -13.6626
  26   2.0000      -0.494236       -13.4488
  27   2.0000      -0.493557       -13.4304
  28   2.0000      -0.486404       -13.2357
  29   2.0000      -0.479866       -13.0578
  30   2.0000      -0.475250       -12.9322
  31   2.0000      -0.473721       -12.8906
  32   2.0000      -0.467287       -12.7155
  33   2.0000      -0.458038       -12.4639
  34   2.0000      -0.435298       -11.8451
  35   2.0000      -0.432329       -11.7643
  36   2.0000      -0.423943       -11.5361
  37   2.0000      -0.407742       -11.0952
  38   2.0000      -0.401320       -10.9205
  39   2.0000      -0.346080        -9.4173
  40   2.0000      -0.329792        -8.9741
  41   2.0000      -0.326362        -8.8808
  42   0.0000       0.080356         2.1866
  43   0.0000       0.085626         2.3300
  44   0.0000       0.091971         2.5027
  45   0.0000       0.095945         2.6108
  46   0.0000       0.098310         2.6751

MULLIKEN ATOMIC CHARGES
-----------------------
   0 C :   -0.046709
   1 C :   -0.072086
   2 C :   -0.002590
   3 C :   -0.042417
   4 C :   -0.112142
   5 C :   -0.001161
   6 C :   -0.052861
   7 C :   -0.068158
   8 C :   -0.007713
   9 C :   -0.032590
  10 C :   -0.054793
  11 C :   -0.027413
  12 C :   -0.069279
  13 C :   -0.049088
  14 C :   -0.048274
  15 H :    0.033145
  16 H :    0.038975
  17 H :    0.027435
  18 H :    0.009858
  19 H :    0.040745
  20 H :    0.036609
  21 H :    0.017679
  22 H :    0.027623
  23 H :    0.029500
  24 H :    0.040036
  25 H :    0.027844
  26 H :    0.021278
  27 H :    0.017730
  28 H :    0.030394
  29 H :    0.030893
  30 H :    0.044967
  31 H :    0.017419
  32 H :    0.009156
  33 H :    0.034378
  34 H :    0.025499
  35 H :    0.034561
  36 H :    0.041541
  37 H :    0.011555
  38 H :    0.038452
Sum of atomic charges:   -0.0000000

LOEWDIN ATOMIC CHARGES
----------------------
   0 C :   -0.111160
   1 C :   -0.048308
   2 C :   -0.046872
   3 C :   -0.075755
   4 C :   -0.053692
   5 C :   -0.061551
   6 C :   -0.077691
   7 C :   -0.034035
   8 C :   -0.078622
   9 C :   -0.075378
  10 C :   -0.084055
  11 C :   -0.056080
  12 C :   -0.055227
  13 C :   -0.108007
  14 C :   -0.105858
  15 H :    0.047913
  16 H :    0.049728
  17 H :    0.050588
  18 H :    0.033123
  19 H :    0.046787
  20 H :    0.048402
  21 H :    0.041762
  22 H :    0.042869
  23 H :    0.043498
  24 H :    0.047856
  25 H :    0.048437
  26 H :    0.029163
  27 H :    0.031875
  28 H :    0.049986
  29 H :    0.046958
  30 H :    0.050296
  31 H :    0.038232
  32 H :    0.037559
  33 H :    0.047352
  34 H :    0.049083
  35 H :    0.048092
  36 H :    0.050434
  37 H :    0.042101
  38 H :    0.050197

  Mayer bond orders larger than 0.100000
B(  0-C ,  1-C ) :   1.0383 B(  0-C , 15-H ) :   0.9787 B(  0-C , 16-H ) :   0.9768
B(  0-C , 17-H ) :   0.9901 B(  1-C ,  2-C ) :   1.8987 B(  1-C ,  6-C ) :   1.0072
B(  2-C ,  3-C ) :   1.0237 B(  2-C , 18-H ) :   0.9923 B(  3-C ,  4-C ) :   0.9737
B(  3-C , 19-H ) :   0.9829 B(  3-C , 20-H ) :   0.9940 B(  4-C ,  5-C ) :   0.9824
B(  4-C ,  7-C ) :   1.0178 B(  4-C , 21-H ) :   1.0009 B(  5-C ,  6-C ) :   0.9834
B(  5-C , 22-H ) :   0.9935 B(  5-C , 23-H ) :   1.0008 B(  6-C , 24-H ) :   0.9804
B(  6-C , 25-H ) :   0.9976 B(  7-C ,  8-C ) :   1.9543 B(  7-C ,  9-C ) :   1.0307
B(  8-C , 26-H ) :   0.9808 B(  8-C , 27-H ) :   0.9826 B(  9-C , 10-C ) :   0.9587
B(  9-C , 28-H ) :   0.9947 B(  9-C , 29-H ) :   0.9838 B( 10-C , 11-C ) :   1.0288
B( 10-C , 30-H ) :   0.9870 B( 10-C , 31-H ) :   0.9946 B( 11-C , 12-C ) :   1.8909
B( 11-C , 32-H ) :   0.9941 B( 12-C , 13-C ) :   1.0303 B( 12-C , 14-C ) :   1.0348
B( 13-C , 33-H ) :   0.9799 B( 13-C , 34-H ) :   0.9924 B( 13-C , 35-H ) :   0.9801
B( 14-C , 36-H ) :   0.9771 B( 14-C , 37-H ) :   0.9935 B( 14-C , 38-H ) :   0.9769

Dispersion correction           -0.047663162
FINAL SINGLE POINT ENERGY       -99.900550457738

DIPOLE MOMENT
-------------

Method             : SCF
Type of density    : Electron Density
Multiplicity       :   1
Irrep              :   0
Energy             :   -99.8528872958459175 Eh
Relativity type    :
Basis              : AO
                                X                 Y                 Z
Electronic contribution:     -5.080114903      -2.022291480       2.101349267
Nuclear contribution   :      5.144197752       2.261859075      -2.291923412
                        -----------------------------------------
Total Dipole Moment    :      0.064082849       0.239567595      -0.190574144
                        -----------------------------------------
Magnitude (a.u.)       :      0.312758291
Magnitude (Debye)      :      0.794968399

VIBRATIONAL FREQUENCIES
-----------------------

Scaling factor for frequencies =  1.000000000  (already applied!)

     0:       0.00 cm**-1
     1:       0.00 cm**-1
     2:       0.00 cm**-1
     3:       0.00 cm**-1
     4:       0.00 cm**-1
     5:       0.00 cm**-1
     6:      13.11 cm**-1
     7:      19.59 cm**-1
     8:      29.43 cm**-1
     9:      39.89 cm**-1
    10:      91.06 cm**-1
    11:      96.50 cm**-1
    12:     130.87 cm**-1
    13:     147.93 cm**-1
    14:     170.12 cm**-1
    15:     190.22 cm**-1
    16:     199.33 cm**-1
    17:     225.37 cm**-1
    18:     291.99 cm**-1
    19:     307.06 cm**-1
    20:     315.91 cm**-1
    21:     336.97 cm**-1
    22:     354.52 cm**-1
    23:     382.58 cm**-1
    24:     409.83 cm**-1
    25:     442.07 cm**-1
    26:     466.74 cm**-1
    27:     492.93 cm**-1
    28:     535.69 cm**-1
    29:     555.23 cm**-1
    30:     572.82 cm**-1
    31:     653.99 cm**-1
    32:     726.14 cm**-1
    33:     751.44 cm**-1
    34:     764.41 cm**-1
    35:     779.92 cm**-1
    36:     810.96 cm**-1
    37:     841.26 cm**-1
    38:     848.64 cm**-1
    39:     876.66 cm**-1
    40:     916.50 cm**-1
    41:     938.47 cm**-1
    42:     948.08 cm**-1
    43:     970.55 cm**-1
    44:     985.67 cm**-1
    45:    1004.78 cm**-1
    46:    1015.57 cm**-1
    47:    1030.95 cm**-1
    48:    1033.67 cm**-1
    49:    1051.57 cm**-1
    50:    1054.68 cm**-1
    51:    1075.65 cm**-1
    52:    1082.42 cm**-1
    53:    1104.96 cm**-1
    54:    1117.54 cm**-1
    55:    1128.63 cm**-1
    56:    1151.61 cm**-1
    57:    1162.34 cm**-1
    58:    1191.27 cm**-1
    59:    1211.57 cm**-1
    60:    1244.03 cm**-1
    61:    1260.50 cm**-1
    62:    1272.68 cm**-1
    63:    1277.18 cm**-1
    64:    1293.59 cm**-1
    65:    1315.55 cm**-1
    66:    1338.37 cm**-1
    67:    1344.08 cm**-1
    68:    1351.75 cm**-1
    69:    1383.37 cm**-1
    70:    1396.52 cm**-1
    71:    1412.55 cm**-1
    72:    1422.36 cm**-1
    73:    1426.94 cm**-1
    74:    1450.35 cm**-1
    75:    1450.93 cm**-1
    76:    1452.93 cm**-1
    77:    1458.87 cm**-1
    78:    1473.53 cm**-1
    79:    1501.93 cm**-1
    80:    1507.99 cm**-1
    81:    1508.33 cm**-1
    82:    1514.52 cm**-1
    83:    1519.86 cm**-1
    84:    1521.24 cm**-1
    85:    1521.62 cm**-1
    86:    1526.02 cm**-1
    87:    1527.35 cm**-1
    88:    1538.24 cm**-1
    89:    1539.61 cm**-1
    90:    1771.44 cm**-1
    91:    1793.49 cm**-1
    92:    1806.94 cm**-1
    93:    3077.00 cm**-1
    94:    3081.34 cm**-1
    95:    3091.89 cm**-1
    96:    3092.66 cm**-1
    97:    3093.52 cm**-1
    98:    3098.74 cm**-1
    99:    3105.27 cm**-1
   100:    3112.13 cm**-1
   101:    3123.14 cm**-1
   102:    3149.69 cm**-1
   103:    3151.27 cm**-1
   104:    3161.20 cm**-1
   105:    3167.77 cm**-1
   106:    3167.87 cm**-1
   107:    3169.34 cm**-1
   108:    3173.89 cm**-1
   109:    3184.18 cm**-1
   110:    3198.70 cm**-1
   111:    3202.24 cm**-1
   112:    3207.10 cm**-1
   113:    3209.15 cm**-1
   114:    3223.76 cm**-1
   115:    3236.73 cm**-1
   116:    3302.51 cm**-1

IR SPECTRUM
-----------

 Mode   freq       eps      Int      T**2         TX        TY        TZ
       cm**-1   L/(mol*cm) km/mol    a.u.
----------------------------------------------------------------------------
  6:     13.11   0.000006    0.03  0.000139  (-0.006118  0.003223  0.009545)
  7:     19.59   0.000004    0.02  0.000058  ( 0.002699  0.005382 -0.004687)
  8:     29.43   0.000002    0.01  0.000025  (-0.002897  0.003417  0.002215)
  9:     39.89   0.000004    0.02  0.000031  ( 0.001744 -0.005300 -0.000410)
 10:     91.06   0.000005    0.02  0.000016  (-0.001859  0.001526 -0.003165)
 11:     96.50   0.000091    0.46  0.000295  ( 0.008211 -0.007546 -0.013048)
 12:    130.87   0.000018    0.09  0.000044  (-0.000209  0.004368  0.004961)
 13:    147.93   0.000133    0.67  0.000282  ( 0.003498 -0.016392  0.000762)
 14:    170.12   0.000051    0.26  0.000093  ( 0.005436 -0.007910  0.000857)
 15:    190.22   0.000180    0.91  0.000296  (-0.006842  0.015714  0.001475)
 16:    199.33   0.000069    0.35  0.000109  ( 0.002488 -0.003880 -0.009353)
 17:    225.37   0.000080    0.40  0.000111  ( 0.005146 -0.009075 -0.001393)
 18:    291.99   0.000161    0.81  0.000172  (-0.011158  0.005527 -0.004141)
 19:    307.06   0.000022    0.11  0.000022  ( 0.001860 -0.001033  0.004167)
 20:    315.91   0.000024    0.12  0.000024  (-0.004399 -0.001633 -0.001386)
 21:    336.97   0.000207    1.05  0.000192  (-0.001048  0.000520 -0.013807)
 22:    354.52   0.000281    1.42  0.000247  ( 0.001815 -0.011449 -0.010630)
 23:    382.58   0.000295    1.49  0.000241  (-0.014354 -0.004234  0.004113)
 24:    409.83   0.000145    0.73  0.000110  ( 0.001686 -0.000818 -0.010339)
 25:    442.07   0.000103    0.52  0.000073  (-0.003587 -0.007195  0.002898)
 26:    466.74   0.001427    7.21  0.000954  ( 0.017515 -0.020370 -0.015239)
 27:    492.93   0.000303    1.53  0.000192  (-0.008002  0.004029 -0.010576)
 28:    535.69   0.000273    1.38  0.000159  ( 0.009773 -0.004846 -0.006311)
 29:    555.23   0.000620    3.13  0.000348  (-0.006237 -0.016289  0.006632)
 30:    572.82   0.000233    1.18  0.000127  (-0.007097  0.005624  0.006707)
 31:    653.99   0.001594    8.06  0.000761  (-0.017618  0.010791  0.018271)
 32:    726.14   0.000204    1.03  0.000088  (-0.004541 -0.003618  0.007346)
 33:    751.44   0.000331    1.67  0.000137  (-0.001534 -0.001913  0.011465)
 34:    764.41   0.000009    0.04  0.000004  (-0.001052 -0.000444  0.001489)
 35:    779.92   0.000485    2.45  0.000194  (-0.004724  0.012886 -0.002396)
 36:    810.96   0.000050    0.25  0.000019  ( 0.000195 -0.003904 -0.001963)
 37:    841.26   0.002564   12.96  0.000951  (-0.006357  0.029542 -0.006152)
 38:    848.64   0.001191    6.02  0.000438  ( 0.008735 -0.012509 -0.014325)
 39:    876.66   0.002840   14.35  0.001011  ( 0.014835 -0.016208 -0.022985)
 40:    916.50   0.001011    5.11  0.000344  (-0.007070  0.007974  0.015188)
 41:    938.47   0.003729   18.85  0.001240  (-0.010038  0.015992  0.029724)
 42:    948.08   0.002942   14.87  0.000968  ( 0.012208 -0.022484 -0.017717)
 43:    970.55   0.000417    2.11  0.000134  ( 0.008732 -0.006201 -0.004400)
 44:    985.67   0.000152    0.77  0.000048  ( 0.006709 -0.001041  0.001384)
 45:   1004.78   0.000267    1.35  0.000083  ( 0.003004 -0.003142 -0.008004)
 46:   1015.57   0.000384    1.94  0.000118  ( 0.004700 -0.009419  0.002667)
 47:   1030.95   0.000358    1.81  0.000108  (-0.008426  0.006106  0.000435)
 48:   1033.67   0.000788    3.98  0.000238  ( 0.001895 -0.007055 -0.013581)
 49:   1051.57   0.000551    2.78  0.000163  ( 0.005379  0.004513  0.010685)
 50:   1054.68   0.000378    1.91  0.000112  ( 0.000575  0.009959  0.003509)
 51:   1075.65   0.000205    1.04  0.000059  (-0.002103  0.007418 -0.000002)
 52:   1082.42   0.000076    0.39  0.000022  ( 0.002776  0.003699 -0.000768)
 53:   1104.96   0.000299    1.51  0.000084  ( 0.006554  0.003582  0.005349)
 54:   1117.54   0.000049    0.25  0.000014  ( 0.000080  0.000716  0.003639)
 55:   1128.63   0.000076    0.38  0.000021  ( 0.003088 -0.000560 -0.003337)
 56:   1151.61   0.001569    7.93  0.000425  ( 0.015458  0.011587 -0.007207)
 57:   1162.34   0.001016    5.14  0.000273  ( 0.013204  0.009829  0.001391)
 58:   1191.27   0.000276    1.40  0.000072  ( 0.005704  0.004440  0.004485)
 59:   1211.57   0.000635    3.21  0.000164  (-0.012158  0.001705 -0.003592)
 60:   1244.03   0.000900    4.55  0.000226  (-0.012668  0.008007 -0.001078)
 61:   1260.50   0.000584    2.95  0.000144  (-0.009681  0.001184  0.007026)
 62:   1272.68   0.000802    4.05  0.000197  (-0.001523  0.003184 -0.013574)
 63:   1277.18   0.001748    8.83  0.000427  (-0.018628  0.001328 -0.008852)
 64:   1293.59   0.000335    1.69  0.000081  (-0.002605  0.005741 -0.006401)
 65:   1315.55   0.000552    2.79  0.000131  ( 0.010199 -0.001824  0.004850)
 66:   1338.37   0.000100    0.50  0.000023  ( 0.001392  0.003835  0.002569)
 67:   1344.08   0.000306    1.55  0.000071  (-0.008345 -0.001198  0.000011)
 68:   1351.75   0.000349    1.76  0.000081  ( 0.006906 -0.001582  0.005514)
 69:   1383.37   0.000093    0.47  0.000021  (-0.002130 -0.001650 -0.003711)
 70:   1396.52   0.000920    4.65  0.000206  (-0.013113 -0.005808 -0.000027)
 71:   1412.55   0.000433    2.19  0.000096  (-0.008299  0.003706  0.003606)
 72:   1422.36   0.000100    0.51  0.000022  ( 0.004178  0.001621  0.001386)
 73:   1426.94   0.000015    0.07  0.000003  (-0.000708  0.001172 -0.001162)
 74:   1450.35   0.000680    3.44  0.000146  (-0.008839  0.002733 -0.007790)
 75:   1450.93   0.000353    1.79  0.000076  (-0.007900 -0.003539 -0.001025)
 76:   1452.93   0.001681    8.50  0.000361  (-0.015977 -0.006555  0.007931)
 77:   1458.87   0.002597   13.13  0.000556  (-0.004397  0.018953 -0.013307)
 78:   1473.53   0.000694    3.51  0.000147  (-0.004010 -0.010326  0.004928)
 79:   1501.93   0.000063    0.32  0.000013  (-0.001079  0.002582  0.002297)
 80:   1507.99   0.000935    4.73  0.000194  ( 0.012316 -0.003723  0.005287)
 81:   1508.33   0.001999   10.10  0.000413  (-0.005190  0.017571 -0.008821)
 82:   1514.52   0.001665    8.41  0.000343  (-0.000557 -0.010602 -0.015178)
 83:   1519.86   0.000291    1.47  0.000060  ( 0.000196  0.007604  0.001352)
 84:   1521.24   0.003561   17.99  0.000730  ( 0.001048 -0.008508 -0.025631)
 85:   1521.62   0.002565   12.96  0.000526  ( 0.008103 -0.009468 -0.019255)
 86:   1526.02   0.000588    2.97  0.000120  ( 0.000060  0.010473  0.003239)
 87:   1527.35   0.002962   14.97  0.000605  ( 0.001227  0.022362 -0.010182)
 88:   1538.24   0.001295    6.54  0.000263  ( 0.006590  0.008935  0.011808)
 89:   1539.61   0.001037    5.24  0.000210  (-0.009769  0.001328 -0.010627)
 90:   1771.44   0.005500   27.80  0.000969  ( 0.012137  0.027258 -0.008870)
 91:   1793.49   0.001074    5.43  0.000187  ( 0.010487  0.006555  0.005819)
 92:   1806.94   0.000604    3.05  0.000104  (-0.005386 -0.008179  0.002908)
 93:   3077.00   0.008431   42.60  0.000855  ( 0.003576 -0.026737  0.011287)
 94:   3081.34   0.002528   12.78  0.000256  ( 0.005271  0.002596  0.014884)
 95:   3091.89   0.008435   42.63  0.000851  ( 0.028476  0.004087  0.004869)
 96:   3092.66   0.001327    6.71  0.000134  ( 0.002444 -0.003541 -0.010742)
 97:   3093.52   0.006707   33.90  0.000677  (-0.024246 -0.001097 -0.009356)
 98:   3098.74   0.009823   49.64  0.000989  (-0.016602 -0.025765  0.007055)
 99:   3105.27   0.009132   46.15  0.000918  (-0.020544 -0.019578 -0.010603)
100:   3112.13   0.003980   20.11  0.000399  ( 0.006598  0.008507  0.016829)
101:   3123.14   0.008892   44.94  0.000889  ( 0.017925 -0.001194 -0.023786)
102:   3149.69   0.004853   24.53  0.000481  ( 0.010544  0.007594  0.017664)
103:   3151.27   0.001346    6.80  0.000133  ( 0.004817 -0.009533  0.004385)
104:   3161.20   0.003067   15.50  0.000303  ( 0.012282 -0.000580  0.012310)
105:   3167.77   0.002129   10.76  0.000210  (-0.003890  0.013928 -0.000807)
106:   3167.87   0.000445    2.25  0.000044  (-0.001595  0.002043  0.006091)
107:   3169.34   0.003989   20.16  0.000393  ( 0.005717 -0.008397 -0.017017)
108:   3173.89   0.003016   15.24  0.000297  (-0.001400  0.014214 -0.009622)
109:   3184.18   0.002565   12.96  0.000251  (-0.008775 -0.012155  0.005164)
110:   3198.70   0.002785   14.08  0.000272  (-0.010917  0.009560 -0.007821)
111:   3202.24   0.002477   12.52  0.000241  ( 0.003149 -0.001892 -0.015097)
112:   3207.10   0.004611   23.30  0.000449  (-0.005169  0.017277 -0.011109)
113:   3209.15   0.001894    9.57  0.000184  (-0.003651 -0.011757  0.005709)
114:   3223.76   0.003651   18.45  0.000353  ( 0.017614 -0.001069  0.006482)
115:   3236.73   0.003093   15.63  0.000298  ( 0.009959 -0.003372 -0.013700)
116:   3302.51   0.001758    8.89  0.000166  (-0.010323  0.003905 -0.006658)

--------------------------
THERMOCHEMISTRY AT 298.15K
--------------------------

Temperature         ...   298.15 K
Pressure            ...     1.00 atm
Total Mass          ...   204.36 AMU
Quasi RRHO          ...     True
Cut-Off Frequency   ...     1.00 cm^-1

Throughout the following assumptions are being made:
  (1) The electronic state is orbitally nondegenerate
  (2) There are no thermally accessible electronically excited states
  (3) Hindered rotations indicated by low frequency modes are not
      treated as such but are treated as vibrations and this may
      cause some error
  (4) All equations used are the standard statistical mechanics
      equations for an ideal gas
  (5) All vibrations are strictly harmonic

freq.      13.11  E(vib)   ...       0.57
freq.      19.59  E(vib)   ...       0.56
freq.      29.43  E(vib)   ...       0.55
freq.      39.89  E(vib)   ...       0.54
freq.      91.06  E(vib)   ...       0.47
freq.      96.50  E(vib)   ...       0.47
freq.     130.87  E(vib)   ...       0.42
freq.     147.93  E(vib)   ...       0.41
freq.     170.12  E(vib)   ...       0.38
freq.     190.22  E(vib)   ...       0.36
freq.     199.33  E(vib)   ...       0.35
freq.     225.37  E(vib)   ...       0.33
freq.     291.99  E(vib)   ...       0.27
freq.     307.06  E(vib)   ...       0.26
freq.     315.91  E(vib)   ...       0.25
freq.     336.97  E(vib)   ...       0.24
freq.     354.52  E(vib)   ...       0.22
freq.     382.58  E(vib)   ...       0.21
freq.     409.83  E(vib)   ...       0.19
freq.     442.07  E(vib)   ...       0.17
freq.     466.74  E(vib)   ...       0.16
freq.     492.93  E(vib)   ...       0.14
freq.     535.69  E(vib)   ...       0.12
freq.     555.23  E(vib)   ...       0.12
freq.     572.82  E(vib)   ...       0.11
freq.     653.99  E(vib)   ...       0.08
freq.     726.14  E(vib)   ...       0.06
freq.     751.44  E(vib)   ...       0.06
freq.     764.41  E(vib)   ...       0.06
freq.     779.92  E(vib)   ...       0.05
freq.     810.96  E(vib)   ...       0.05
freq.     841.26  E(vib)   ...       0.04
freq.     848.64  E(vib)   ...       0.04
freq.     876.66  E(vib)   ...       0.04
freq.     916.50  E(vib)   ...       0.03
freq.     938.47  E(vib)   ...       0.03
freq.     948.08  E(vib)   ...       0.03
freq.     970.55  E(vib)   ...       0.03
freq.     985.67  E(vib)   ...       0.02
freq.    1004.78  E(vib)   ...       0.02
freq.    1015.57  E(vib)   ...       0.02
freq.    1030.95  E(vib)   ...       0.02
freq.    1033.67  E(vib)   ...       0.02
freq.    1051.57  E(vib)   ...       0.02
freq.    1054.68  E(vib)   ...       0.02
freq.    1075.65  E(vib)   ...       0.02
freq.    1082.42  E(vib)   ...       0.02
freq.    1104.96  E(vib)   ...       0.02
freq.    1117.54  E(vib)   ...       0.01
freq.    1128.63  E(vib)   ...       0.01
freq.    1151.61  E(vib)   ...       0.01
freq.    1162.34  E(vib)   ...       0.01
freq.    1191.27  E(vib)   ...       0.01
freq.    1211.57  E(vib)   ...       0.01
freq.    1244.03  E(vib)   ...       0.01
freq.    1260.50  E(vib)   ...       0.01
freq.    1272.68  E(vib)   ...       0.01
freq.    1277.18  E(vib)   ...       0.01
freq.    1293.59  E(vib)   ...       0.01
freq.    1315.55  E(vib)   ...       0.01
freq.    1338.37  E(vib)   ...       0.01
freq.    1344.08  E(vib)   ...       0.01
freq.    1351.75  E(vib)   ...       0.01
freq.    1383.37  E(vib)   ...       0.00
freq.    1396.52  E(vib)   ...       0.00
freq.    1412.55  E(vib)   ...       0.00
freq.    1422.36  E(vib)   ...       0.00
freq.    1426.94  E(vib)   ...       0.00
freq.    1450.35  E(vib)   ...       0.00
freq.    1450.93  E(vib)   ...       0.00
freq.    1452.93  E(vib)   ...       0.00
freq.    1458.87  E(vib)   ...       0.00
freq.    1473.53  E(vib)   ...       0.00
freq.    1501.93  E(vib)   ...       0.00
freq.    1507.99  E(vib)   ...       0.00
freq.    1508.33  E(vib)   ...       0.00
freq.    1514.52  E(vib)   ...       0.00
freq.    1519.86  E(vib)   ...       0.00
freq.    1521.24  E(vib)   ...       0.00
freq.    1521.62  E(vib)   ...       0.00
freq.    1526.02  E(vib)   ...       0.00
freq.    1527.35  E(vib)   ...       0.00
freq.    1538.24  E(vib)   ...       0.00
freq.    1539.61  E(vib)   ...       0.00
freq.    1771.44  E(vib)   ...       0.00
freq.    1793.49  E(vib)   ...       0.00
freq.    1806.94  E(vib)   ...       0.00
freq.    3077.00  E(vib)   ...       0.00
freq.    3081.34  E(vib)   ...       0.00
freq.    3091.89  E(vib)   ...       0.00
freq.    3092.66  E(vib)   ...       0.00
freq.    3093.52  E(vib)   ...       0.00
freq.    3098.74  E(vib)   ...       0.00
freq.    3105.27  E(vib)   ...       0.00
freq.    3112.13  E(vib)   ...       0.00
freq.    3123.14  E(vib)   ...       0.00
freq.    3149.69  E(vib)   ...       0.00
freq.    3151.27  E(vib)   ...       0.00
freq.    3161.20  E(vib)   ...       0.00
freq.    3167.77  E(vib)   ...       0.00
freq.    3167.87  E(vib)   ...       0.00
freq.    3169.34  E(vib)   ...       0.00
freq.    3173.89  E(vib)   ...       0.00
freq.    3184.18  E(vib)   ...       0.00
freq.    3198.70  E(vib)   ...       0.00
freq.    3202.24  E(vib)   ...       0.00
freq.    3207.10  E(vib)   ...       0.00
freq.    3209.15  E(vib)   ...       0.00
freq.    3223.76  E(vib)   ...       0.00
freq.    3236.73  E(vib)   ...       0.00
freq.    3302.51  E(vib)   ...       0.00

------------
INNER ENERGY
------------

The inner energy is: U= E(el) + E(ZPE) + E(vib) + E(rot) + E(trans)
    E(el)   - is the total energy from the electronic structure calculation
              = E(kin-el) + E(nuc-el) + E(el-el) + E(nuc-nuc)
    E(ZPE)  - the the zero temperature vibrational energy from the frequency calculation
    E(vib)  - the the finite temperature correction to E(ZPE) due to population
              of excited vibrational states
    E(rot)  - is the rotational thermal energy
    E(trans)- is the translational thermal energy

Summary of contributions to the inner energy U:
Electronic energy                ...    -99.90055046 Eh
Zero point energy                ...      0.36212250 Eh     227.23 kcal/mol
Thermal vibrational correction   ...      0.01415556 Eh       8.88 kcal/mol
Thermal rotational correction    ...      0.00141627 Eh       0.89 kcal/mol
Thermal translational correction ...      0.00141627 Eh       0.89 kcal/mol
-----------------------------------------------------------------------
Total thermal energy                    -99.52143985 Eh

Summary of corrections to the electronic energy:
(perhaps to be used in another calculation)
Total thermal correction                  0.01698810 Eh      10.66 kcal/mol
Non-thermal (ZPE) correction              0.36212250 Eh     227.23 kcal/mol
-----------------------------------------------------------------------
Total correction                          0.37911061 Eh     237.89 kcal/mol

Rotational constants in cm-1:     0.050741     0.007383     0.007070

                             ****ORCA TERMINATED NORMALLY****
TOTAL RUN TIME: 0 days 1 hours 16 minutes 18 seconds 210 msec
