                         Program Version 6.0.1  -  RELEASE   -
|  1> ! wB97X-3c OPT FREQ TightSCF
|  2> %pal
|  3>   nprocs 40
|  4> end
|  5> * xyz 0 1
|  6> C     -1.949608    -2.375053     0.614334
|  7> C     -2.277255    -0.969625     0.087230
|  8> C     -3.759396    -0.665077     0.360056
|  9> C     -1.351431     0.095055     0.742821
| 10> C     -1.657623     1.536784     0.337786
| 11> C     -0.396564     2.313446     0.689595
| 12> C      0.768761     1.321777     0.521635
| 13> C      0.158884    -0.083044     0.476807
| 14> C      0.609808    -0.218088    -0.995346
| 15> C      1.222858     1.175554    -0.954152
| 16> C      2.728913     1.037366    -1.260502
| 17> C      3.078264    -0.448411    -1.221962
| 18> C      1.764801    -1.144674    -1.180243
| 19> C      1.635044    -2.467590    -1.321056
| 20> C      1.864785     1.483198     1.591125
| 21> H     -0.892980    -2.636782     0.411871
| 22> H     -2.587837    -3.132752     0.111562
| 23> H     -2.122473    -2.431875     1.710629
| 24> H     -2.142494    -0.971238    -1.013675
| 25> H     -4.402381    -1.469432    -0.057312
| 26> H     -3.949821    -0.586058     1.452050
| 27> H     -4.059673     0.284902    -0.129344
| 28> H     -1.491852     0.032372     1.846950
| 29> H     -2.536207     1.940182     0.886669
| 30> H     -1.842347     1.600632    -0.757597
| 31> H     -0.471680     2.652645     1.746640
| 32> H     -0.278877     3.210668     0.044138
| 33> H      0.641255    -0.814442     1.165325
| 34> H     -0.178485    -0.309559    -1.770536
| 35> H      0.712935     1.876926    -1.652696
| 36> H      2.911013     1.419041    -2.289102
| 37> H      3.368993     1.630852    -0.576160
| 38> H      3.663655    -0.694068    -0.310144
| 39> H      3.651107    -0.740499    -2.129182
| 40> H      0.655273    -2.931612    -1.320175
| 41> H      2.509761    -3.095565    -1.458573
| 42> H      2.354590     2.473820     1.484178
| 43> H      2.630131     0.683554     1.510426
| 44> H      1.418154     1.416668     2.605930
| 45> *
| 46>
| 47>                          ****END OF INPUT****
 Total Charge           Charge          ....    0
 Multiplicity           Mult            ....    1
 Number of Electrons    NEL             ....   84
Dispersion correction           -0.053511089
FINAL SINGLE POINT ENERGY       -99.917178057146
Dispersion correction             ... done (  0.1 sec)
Dispersion correction           -0.053791136
FINAL SINGLE POINT ENERGY       -99.929793867913
Dispersion correction             ... done (  0.1 sec)
Dispersion correction           -0.053862144
FINAL SINGLE POINT ENERGY       -99.931846584518
Dispersion correction             ... done (  0.1 sec)
FINAL SINGLE POINT ENERGY       -99.933181301705
FINAL SINGLE POINT ENERGY       -99.934006770029
FINAL SINGLE POINT ENERGY       -99.934706072733
FINAL SINGLE POINT ENERGY       -99.935077502905
FINAL SINGLE POINT ENERGY       -99.935206876850
Dispersion correction             ... done (  0.1 sec)
Dispersion correction           -0.054145905
FINAL SINGLE POINT ENERGY       -99.935240165599
Dispersion correction             ... done (  0.1 sec)
Dispersion correction           -0.054140222
FINAL SINGLE POINT ENERGY       -99.935247553487
Dispersion correction             ... done (  0.1 sec)
                    ***********************HURRAY********************

CARTESIAN COORDINATES (ANGSTROEM)
---------------------------------
  C     -1.798779   -2.357884    0.656191
  C     -2.241112   -0.988043    0.166755
  C     -3.699928   -0.743211    0.520233
  C     -1.345082    0.115667    0.716728
  C     -1.624917    1.520572    0.185434
  C     -0.406013    2.320630    0.623962
  C      0.787059    1.364064    0.523732
  C      0.150499   -0.052345    0.464467
  C      0.572079   -0.186340   -1.019320
  C      1.280542    1.188669   -0.935926
  C      2.762990    0.907034   -1.173292
  C      2.955128   -0.579047   -0.873788
  C      1.646679   -1.193574   -1.284866
  C      1.479077   -2.381797   -1.843247
  C      1.820973    1.643015    1.589088
  H     -0.787399   -2.596592    0.330845
  H     -2.462170   -3.137668    0.281626
  H     -1.819272   -2.403648    1.747111
  H     -2.159058   -0.977686   -0.924528
  H     -4.333215   -1.540812    0.131754
  H     -3.834662   -0.712020    1.603338
  H     -4.065685    0.197145    0.111095
  H     -1.481944    0.139100    1.805637
  H     -2.554349    1.944364    0.562385
  H     -1.702884    1.496444   -0.904899
  H     -0.534343    2.624783    1.665227
  H     -0.253299    3.230580    0.041843
  H      0.607419   -0.801435    1.110734
  H     -0.253878   -0.272950   -1.721062
  H      0.909742    1.962511   -1.608417
  H      2.986882    1.087598   -2.225786
  H      3.421119    1.550854   -0.591039
  H      3.107151   -0.738554    0.196178
  H      3.806499   -1.018796   -1.389923
  H      0.497477   -2.731855   -2.136834
  H      2.315977   -3.044082   -2.024630
  H      2.216561    2.655968    1.495071
  H      2.662021    0.953600    1.548725
  H      1.372112    1.555738    2.579396

 Multiplicity           Mult            ....    1
 Number of Electrons    NEL             ....   84
 Basis Dimension        Dim             ....  315

ORBITAL ENERGIES
----------------

  NO   OCC          E(Eh)            E(eV)
   0   2.0000      -1.032294       -28.0902
   1   2.0000      -0.972039       -26.4505
   2   2.0000      -0.938301       -25.5325
   3   2.0000      -0.891438       -24.2573
   4   2.0000      -0.878524       -23.9059
   5   2.0000      -0.863736       -23.5035
   6   2.0000      -0.824219       -22.4281
   7   2.0000      -0.813032       -22.1237
   8   2.0000      -0.780346       -21.2343
   9   2.0000      -0.762293       -20.7431
  10   2.0000      -0.716850       -19.5065
  11   2.0000      -0.712231       -19.3808
  12   2.0000      -0.676578       -18.4106
  13   2.0000      -0.644559       -17.5394
  14   2.0000      -0.627313       -17.0701
  15   2.0000      -0.610304       -16.6072
  16   2.0000      -0.594774       -16.1846
  17   2.0000      -0.574044       -15.6205
  18   2.0000      -0.566748       -15.4220
  19   2.0000      -0.564914       -15.3721
  20   2.0000      -0.550429       -14.9779
  21   2.0000      -0.528539       -14.3823
  22   2.0000      -0.526088       -14.3156
  23   2.0000      -0.519816       -14.1449
  24   2.0000      -0.513887       -13.9836
  25   2.0000      -0.497956       -13.5501
  26   2.0000      -0.492985       -13.4148
  27   2.0000      -0.490875       -13.3574
  28   2.0000      -0.481786       -13.1101
  29   2.0000      -0.463555       -12.6140
  30   2.0000      -0.455224       -12.3873
  31   2.0000      -0.452215       -12.3054
  32   2.0000      -0.443516       -12.0687
  33   2.0000      -0.436061       -11.8658
  34   2.0000      -0.429874       -11.6975
  35   2.0000      -0.419967       -11.4279
  36   2.0000      -0.411007       -11.1841
  37   2.0000      -0.408998       -11.1294
  38   2.0000      -0.402200       -10.9444
  39   2.0000      -0.379348       -10.3226
  40   2.0000      -0.372524       -10.1369
  41   2.0000      -0.339283        -9.2324
  42   0.0000       0.079737         2.1698
  43   0.0000       0.090616         2.4658
  44   0.0000       0.095285         2.5928
  45   0.0000       0.097739         2.6596
  46   0.0000       0.103196         2.8081

MULLIKEN ATOMIC CHARGES
-----------------------
   0 C :   -0.029575
   1 C :   -0.083200
   2 C :   -0.035454
   3 C :   -0.056072
   4 C :   -0.033467
   5 C :    0.003090
   6 C :   -0.166905
   7 C :   -0.000473
   8 C :   -0.060499
   9 C :   -0.009389
  10 C :   -0.032836
  11 C :   -0.041752
  12 C :   -0.053317
  13 C :   -0.036055
  14 C :   -0.003041
  15 H :    0.020313
  16 H :    0.025947
  17 H :    0.024300
  18 H :    0.026644
  19 H :    0.026002
  20 H :    0.023647
  21 H :    0.021666
  22 H :    0.025974
  23 H :    0.036874
  24 H :    0.024091
  25 H :    0.018799
  26 H :    0.030049
  27 H :    0.025832
  28 H :    0.028809
  29 H :    0.024873
  30 H :    0.034769
  31 H :    0.031639
  32 H :    0.034511
  33 H :    0.038334
  34 H :    0.021719
  35 H :    0.021512
  36 H :    0.031011
  37 H :    0.012053
  38 H :    0.029576
Sum of atomic charges:   -0.0000000

LOEWDIN ATOMIC CHARGES
----------------------
   0 C :   -0.104517
   1 C :   -0.078993
   2 C :   -0.107069
   3 C :   -0.058288
   4 C :   -0.070539
   5 C :   -0.066455
   6 C :   -0.045965
   7 C :   -0.020951
   8 C :   -0.031553
   9 C :   -0.026356
  10 C :   -0.069672
  11 C :   -0.069489
  12 C :   -0.039406
  13 C :   -0.085244
  14 C :   -0.111094
  15 H :    0.042767
  16 H :    0.043080
  17 H :    0.042402
  18 H :    0.039537
  19 H :    0.043636
  20 H :    0.042258
  21 H :    0.041452
  22 H :    0.046766
  23 H :    0.040644
  24 H :    0.039930
  25 H :    0.044116
  26 H :    0.040100
  27 H :    0.035990
  28 H :    0.036366
  29 H :    0.033882
  30 H :    0.046865
  31 H :    0.040387
  32 H :    0.042187
  33 H :    0.048145
  34 H :    0.032179
  35 H :    0.032484
  36 H :    0.046130
  37 H :    0.038885
  38 H :    0.045402

  Mayer bond orders larger than 0.100000
B(  0-C ,  1-C ) :   1.0013 B(  0-C , 15-H ) :   0.9947 B(  0-C , 16-H ) :   0.9944
B(  0-C , 17-H ) :   0.9902 B(  1-C ,  2-C ) :   1.0032 B(  1-C ,  3-C ) :   0.9874
B(  1-C , 18-H ) :   0.9883 B(  2-C , 19-H ) :   0.9950 B(  2-C , 20-H ) :   0.9898
B(  2-C , 21-H ) :   0.9956 B(  3-C ,  4-C ) :   0.9760 B(  3-C ,  7-C ) :   1.0210
B(  3-C , 22-H ) :   0.9892 B(  4-C ,  5-C ) :   1.0018 B(  4-C , 23-H ) :   0.9992
B(  4-C , 24-H ) :   0.9901 B(  5-C ,  6-C ) :   1.0023 B(  5-C , 25-H ) :   0.9955
B(  5-C , 26-H ) :   0.9959 B(  6-C ,  7-C ) :   0.9707 B(  6-C ,  9-C ) :   0.9673
B(  6-C , 14-C ) :   1.0252 B(  7-C ,  8-C ) :   0.9500 B(  7-C , 27-H ) :   0.9962
B(  8-C ,  9-C ) :   0.9768 B(  8-C , 12-C ) :   1.0636 B(  8-C , 28-H ) :   0.9896
B(  9-C , 10-C ) :   1.0078 B(  9-C , 29-H ) :   1.0057 B( 10-C , 11-C ) :   0.9838
B( 10-C , 30-H ) :   0.9932 B( 10-C , 31-H ) :   0.9968 B( 11-C , 12-C ) :   1.0124
B( 11-C , 32-H ) :   0.9785 B( 11-C , 33-H ) :   0.9939 B( 12-C , 13-C ) :   1.9547
B( 13-C , 34-H ) :   0.9812 B( 13-C , 35-H ) :   0.9804 B( 14-C , 36-H ) :   0.9852
B( 14-C , 37-H ) :   0.9906 B( 14-C , 38-H ) :   0.9869

Dispersion correction           -0.054135921
FINAL SINGLE POINT ENERGY       -99.935248616440

DIPOLE MOMENT
-------------

Method             : SCF
Type of density    : Electron Density
Multiplicity       :   1
Irrep              :   0
Energy             :   -99.8811126955414750 Eh
Relativity type    :
Basis              : AO
                                X                 Y                 Z
Electronic contribution:      6.745973186       1.897870611      -4.744369150
Nuclear contribution   :     -6.731144081      -1.661527546       4.845353640
                        -----------------------------------------
Total Dipole Moment    :      0.014829106       0.236343065       0.100984490
                        -----------------------------------------
Magnitude (a.u.)       :      0.257440894
Magnitude (Debye)      :      0.654362749

VIBRATIONAL FREQUENCIES
-----------------------

Scaling factor for frequencies =  1.000000000  (already applied!)

     0:       0.00 cm**-1
     1:       0.00 cm**-1
     2:       0.00 cm**-1
     3:       0.00 cm**-1
     4:       0.00 cm**-1
     5:       0.00 cm**-1
     6:      58.03 cm**-1
     7:      67.97 cm**-1
     8:     100.95 cm**-1
     9:     133.51 cm**-1
    10:     167.51 cm**-1
    11:     188.35 cm**-1
    12:     215.86 cm**-1
    13:     232.64 cm**-1
    14:     237.11 cm**-1
    15:     254.16 cm**-1
    16:     276.60 cm**-1
    17:     304.33 cm**-1
    18:     328.25 cm**-1
    19:     348.46 cm**-1
    20:     375.45 cm**-1
    21:     393.95 cm**-1
    22:     411.23 cm**-1
    23:     457.98 cm**-1
    24:     497.60 cm**-1
    25:     511.20 cm**-1
    26:     560.29 cm**-1
    27:     599.95 cm**-1
    28:     638.60 cm**-1
    29:     674.97 cm**-1
    30:     705.08 cm**-1
    31:     743.56 cm**-1
    32:     836.16 cm**-1
    33:     850.61 cm**-1
    34:     867.89 cm**-1
    35:     892.62 cm**-1
    36:     907.80 cm**-1
    37:     920.74 cm**-1
    38:     928.77 cm**-1
    39:     936.20 cm**-1
    40:     943.72 cm**-1
    41:     951.70 cm**-1
    42:     964.24 cm**-1
    43:     975.59 cm**-1
    44:     992.64 cm**-1
    45:     995.45 cm**-1
    46:    1010.77 cm**-1
    47:    1023.20 cm**-1
    48:    1032.09 cm**-1
    49:    1059.36 cm**-1
    50:    1075.84 cm**-1
    51:    1100.72 cm**-1
    52:    1118.01 cm**-1
    53:    1128.84 cm**-1
    54:    1150.96 cm**-1
    55:    1179.66 cm**-1
    56:    1191.23 cm**-1
    57:    1209.39 cm**-1
    58:    1223.20 cm**-1
    59:    1232.39 cm**-1
    60:    1243.56 cm**-1
    61:    1246.43 cm**-1
    62:    1260.78 cm**-1
    63:    1288.19 cm**-1
    64:    1293.07 cm**-1
    65:    1296.35 cm**-1
    66:    1312.13 cm**-1
    67:    1319.25 cm**-1
    68:    1335.74 cm**-1
    69:    1346.55 cm**-1
    70:    1361.44 cm**-1
    71:    1371.42 cm**-1
    72:    1374.32 cm**-1
    73:    1385.17 cm**-1
    74:    1391.66 cm**-1
    75:    1393.72 cm**-1
    76:    1409.34 cm**-1
    77:    1438.86 cm**-1
    78:    1444.74 cm**-1
    79:    1448.71 cm**-1
    80:    1452.45 cm**-1
    81:    1477.68 cm**-1
    82:    1505.63 cm**-1
    83:    1515.93 cm**-1
    84:    1517.10 cm**-1
    85:    1520.32 cm**-1
    86:    1522.78 cm**-1
    87:    1527.10 cm**-1
    88:    1534.81 cm**-1
    89:    1535.62 cm**-1
    90:    1538.17 cm**-1
    91:    1543.52 cm**-1
    92:    1790.58 cm**-1
    93:    3048.72 cm**-1
    94:    3086.53 cm**-1
    95:    3090.17 cm**-1
    96:    3091.18 cm**-1
    97:    3094.20 cm**-1
    98:    3097.99 cm**-1
    99:    3100.64 cm**-1
   100:    3109.64 cm**-1
   101:    3111.99 cm**-1
   102:    3133.83 cm**-1
   103:    3140.10 cm**-1
   104:    3155.41 cm**-1
   105:    3170.38 cm**-1
   106:    3172.43 cm**-1
   107:    3172.93 cm**-1
   108:    3173.82 cm**-1
   109:    3174.15 cm**-1
   110:    3178.86 cm**-1
   111:    3181.98 cm**-1
   112:    3194.65 cm**-1
   113:    3195.58 cm**-1
   114:    3197.03 cm**-1
   115:    3202.13 cm**-1
   116:    3296.80 cm**-1

IR SPECTRUM
-----------

 Mode   freq       eps      Int      T**2         TX        TY        TZ
       cm**-1   L/(mol*cm) km/mol    a.u.
----------------------------------------------------------------------------
  6:     58.03   0.000009    0.04  0.000046  (-0.003402  0.004449 -0.003835)
  7:     67.97   0.000002    0.01  0.000011  ( 0.000674  0.002327 -0.002292)
  8:    100.95   0.000009    0.05  0.000028  ( 0.005259 -0.000071  0.000691)
  9:    133.51   0.000018    0.09  0.000042  (-0.002035  0.002544 -0.005637)
 10:    167.51   0.000024    0.12  0.000046  (-0.001171 -0.000377  0.006639)
 11:    188.35   0.000012    0.06  0.000021  ( 0.000582  0.001102 -0.004374)
 12:    215.86   0.000021    0.10  0.000030  (-0.001776  0.000913  0.005089)
 13:    232.64   0.000011    0.05  0.000015  ( 0.001573 -0.000551  0.003425)
 14:    237.11   0.000001    0.00  0.000001  ( 0.000057 -0.000497 -0.000822)
 15:    254.16   0.000003    0.01  0.000003  ( 0.000460  0.001578  0.000871)
 16:    276.60   0.000006    0.03  0.000006  (-0.000346 -0.002513 -0.000187)
 17:    304.33   0.000046    0.23  0.000048  ( 0.001640 -0.001194 -0.006590)
 18:    328.25   0.000044    0.22  0.000042  (-0.004257  0.001126  0.004764)
 19:    348.46   0.000161    0.82  0.000145  ( 0.004650 -0.002386 -0.010826)
 20:    375.45   0.000029    0.15  0.000024  ( 0.004170  0.001950  0.001671)
 21:    393.95   0.000108    0.54  0.000085  ( 0.002600 -0.001101 -0.008795)
 22:    411.23   0.000029    0.15  0.000022  (-0.004706 -0.000183 -0.000075)
 23:    457.98   0.000114    0.58  0.000078  ( 0.005453  0.001015 -0.006861)
 24:    497.60   0.000401    2.03  0.000252  (-0.003433 -0.001659  0.015398)
 25:    511.20   0.000051    0.26  0.000031  (-0.004790  0.002671 -0.001161)
 26:    560.29   0.000648    3.27  0.000361  (-0.007480  0.002205  0.017315)
 27:    599.95   0.000028    0.14  0.000015  (-0.000855  0.003321  0.001703)
 28:    638.60   0.000376    1.90  0.000184  (-0.008516 -0.003542  0.009939)
 29:    674.97   0.000805    4.07  0.000372  (-0.000006 -0.013193  0.014074)
 30:    705.08   0.000063    0.32  0.000028  (-0.002510  0.002156  0.004097)
 31:    743.56   0.000114    0.58  0.000048  ( 0.002436  0.001132 -0.006383)
 32:    836.16   0.000016    0.08  0.000006  ( 0.001912 -0.001573  0.000079)
 33:    850.61   0.000261    1.32  0.000096  ( 0.002981  0.008019  0.004734)
 34:    867.89   0.000157    0.79  0.000057  ( 0.004946  0.004810  0.002992)
 35:    892.62   0.000054    0.27  0.000019  ( 0.001863  0.001192 -0.003729)
 36:    907.80   0.000140    0.71  0.000048  (-0.002943  0.001167 -0.006162)
 37:    920.74   0.000344    1.74  0.000117  ( 0.009645  0.003307 -0.003572)
 38:    928.77   0.006905   34.89  0.002320  ( 0.004729  0.019944 -0.043588)
 39:    936.20   0.001237    6.25  0.000412  ( 0.008983  0.008966 -0.015853)
 40:    943.72   0.001137    5.75  0.000376  ( 0.005781 -0.000018 -0.018512)
 41:    951.70   0.000370    1.87  0.000121  (-0.010560  0.003091  0.000308)
 42:    964.24   0.000035    0.18  0.000011  (-0.003351 -0.000021 -0.000012)
 43:    975.59   0.000334    1.69  0.000107  ( 0.005333  0.006069 -0.006452)
 44:    992.64   0.000453    2.29  0.000143  (-0.007233  0.009159  0.002521)
 45:    995.45   0.000021    0.11  0.000007  (-0.002305 -0.000905  0.000630)
 46:   1010.77   0.000478    2.42  0.000148  ( 0.005401  0.010796 -0.001372)
 47:   1023.20   0.000523    2.64  0.000159  (-0.007904  0.009348 -0.003101)
 48:   1032.09   0.000196    0.99  0.000059  (-0.002244  0.007362  0.000160)
 49:   1059.36   0.000224    1.13  0.000066  ( 0.007256 -0.003593  0.000748)
 50:   1075.84   0.000209    1.06  0.000061  (-0.001825 -0.004445  0.006137)
 51:   1100.72   0.000135    0.68  0.000038  (-0.005817 -0.000818  0.001939)
 52:   1118.01   0.000092    0.46  0.000026  (-0.005034  0.000376  0.000262)
 53:   1128.84   0.000140    0.71  0.000039  (-0.005476 -0.002616 -0.001411)
 54:   1150.96   0.000467    2.36  0.000127  ( 0.009227 -0.002451 -0.005961)
 55:   1179.66   0.000017    0.09  0.000005  (-0.000310  0.000465  0.002068)
 56:   1191.23   0.000605    3.06  0.000158  ( 0.003927 -0.009798 -0.006858)
 57:   1209.39   0.000439    2.22  0.000113  (-0.007612 -0.006479  0.003665)
 58:   1223.20   0.000111    0.56  0.000028  ( 0.000269  0.005061  0.001602)
 59:   1232.39   0.001107    5.60  0.000280  (-0.010150 -0.013022 -0.002792)
 60:   1243.56   0.000164    0.83  0.000041  (-0.005323  0.002972 -0.001987)
 61:   1246.43   0.000332    1.68  0.000083  ( 0.001060 -0.009060 -0.000170)
 62:   1260.78   0.000210    1.06  0.000052  ( 0.003460 -0.002123 -0.005951)
 63:   1288.19   0.000593    3.00  0.000144  (-0.010206 -0.006018  0.001826)
 64:   1293.07   0.000110    0.56  0.000027  ( 0.004305 -0.000711 -0.002745)
 65:   1296.35   0.000235    1.19  0.000057  (-0.004808  0.005423 -0.002004)
 66:   1312.13   0.000188    0.95  0.000045  (-0.006179 -0.001923  0.001652)
 67:   1319.25   0.000078    0.39  0.000018  ( 0.000664  0.002047 -0.003716)
 68:   1335.74   0.000058    0.29  0.000014  ( 0.002890  0.002177  0.000672)
 69:   1346.55   0.000198    1.00  0.000046  (-0.006709  0.000942  0.000062)
 70:   1361.44   0.000295    1.49  0.000068  ( 0.001665  0.002313 -0.007719)
 71:   1371.42   0.000715    3.61  0.000163  (-0.010146  0.001300  0.007614)
 72:   1374.32   0.000273    1.38  0.000062  ( 0.006094  0.004480  0.002189)
 73:   1385.17   0.000126    0.63  0.000028  (-0.001493  0.004332 -0.002701)
 74:   1391.66   0.000136    0.69  0.000030  (-0.003055  0.003735 -0.002670)
 75:   1393.72   0.000174    0.88  0.000039  (-0.003773  0.004777 -0.001416)
 76:   1409.34   0.000170    0.86  0.000038  (-0.001510 -0.005265 -0.002750)
 77:   1438.86   0.002418   12.22  0.000524  (-0.016599  0.015374 -0.003530)
 78:   1444.74   0.002171   10.97  0.000469  (-0.009698 -0.007481 -0.017857)
 79:   1448.71   0.000094    0.48  0.000020  ( 0.002030  0.002066  0.003454)
 80:   1452.45   0.002538   12.82  0.000545  (-0.011914 -0.013615  0.014762)
 81:   1477.68   0.000629    3.18  0.000133  (-0.003262 -0.008730 -0.006776)
 82:   1505.63   0.001921    9.71  0.000398  (-0.002304  0.014624 -0.013376)
 83:   1515.93   0.000819    4.14  0.000169  (-0.009831 -0.000752 -0.008446)
 84:   1517.10   0.000568    2.87  0.000117  (-0.002581 -0.008816 -0.005704)
 85:   1520.32   0.001424    7.20  0.000292  (-0.009683 -0.009220  0.010659)
 86:   1522.78   0.000680    3.44  0.000139  (-0.010046  0.004889 -0.003808)
 87:   1527.10   0.002506   12.66  0.000512  ( 0.016692 -0.013373 -0.007387)
 88:   1534.81   0.002059   10.41  0.000419  ( 0.007516 -0.012181  0.014621)
 89:   1535.62   0.001497    7.57  0.000304  ( 0.017029 -0.002978 -0.002316)
 90:   1538.17   0.000292    1.47  0.000059  ( 0.004910 -0.005796 -0.001208)
 91:   1543.52   0.002619   13.24  0.000530  ( 0.007575  0.010272  0.019147)
 92:   1790.58   0.007190   36.34  0.001253  (-0.003127 -0.030118 -0.018338)
 93:   3048.72   0.003470   17.54  0.000355  ( 0.004731 -0.001448 -0.018186)
 94:   3086.53   0.003848   19.45  0.000389  (-0.007931  0.000164  0.018059)
 95:   3090.17   0.005328   26.92  0.000538  ( 0.010290 -0.019552  0.007060)
 96:   3091.18   0.003822   19.31  0.000386  (-0.014560 -0.003683 -0.012660)
 97:   3094.20   0.008380   42.35  0.000845  (-0.022928 -0.011537  0.013649)
 98:   3097.99   0.012211   61.71  0.001230  (-0.010693 -0.020614 -0.026281)
 99:   3100.64   0.004860   24.56  0.000489  (-0.010800  0.018821 -0.004277)
100:   3109.64   0.003934   19.88  0.000395  (-0.013720  0.004564 -0.013627)
101:   3111.99   0.004266   21.56  0.000428  ( 0.017392  0.007444 -0.008359)
102:   3133.83   0.009122   46.10  0.000908  (-0.003690 -0.025581  0.015502)
103:   3140.10   0.002533   12.80  0.000252  ( 0.006091 -0.008664  0.011814)
104:   3155.41   0.004216   21.31  0.000417  ( 0.002373 -0.016472  0.011832)
105:   3170.38   0.005224   26.40  0.000514  ( 0.021617 -0.006830  0.000454)
106:   3172.43   0.000385    1.94  0.000038  (-0.001839  0.002088 -0.005488)
107:   3172.93   0.003774   19.07  0.000371  (-0.003243 -0.005079 -0.018299)
108:   3173.82   0.004252   21.49  0.000418  (-0.014809 -0.013000  0.005454)
109:   3174.15   0.004639   23.44  0.000456  ( 0.011429  0.002621 -0.017848)
110:   3178.86   0.008721   44.07  0.000856  ( 0.013250  0.009364  0.024349)
111:   3181.98   0.005475   27.67  0.000537  ( 0.010449 -0.009535 -0.018354)
112:   3194.65   0.002664   13.46  0.000260  ( 0.015364 -0.004872 -0.000681)
113:   3195.58   0.004155   21.00  0.000406  ( 0.006652  0.017781 -0.006731)
114:   3197.03   0.004025   20.34  0.000393  (-0.014583  0.013310  0.001751)
115:   3202.13   0.001703    8.61  0.000166  ( 0.000370  0.010973  0.006743)
116:   3296.80   0.001315    6.65  0.000125  ( 0.010888 -0.002439 -0.000067)

--------------------------
THERMOCHEMISTRY AT 298.15K
--------------------------

Temperature         ...   298.15 K
Pressure            ...     1.00 atm
Total Mass          ...   204.36 AMU
Quasi RRHO          ...     True
Cut-Off Frequency   ...     1.00 cm^-1

Throughout the following assumptions are being made:
  (1) The electronic state is orbitally nondegenerate
  (2) There are no thermally accessible electronically excited states
  (3) Hindered rotations indicated by low frequency modes are not
      treated as such but are treated as vibrations and this may
      cause some error
  (4) All equations used are the standard statistical mechanics
      equations for an ideal gas
  (5) All vibrations are strictly harmonic

freq.      58.03  E(vib)   ...       0.51
freq.      67.97  E(vib)   ...       0.50
freq.     100.95  E(vib)   ...       0.46
freq.     133.51  E(vib)   ...       0.42
freq.     167.51  E(vib)   ...       0.38
freq.     188.35  E(vib)   ...       0.36
freq.     215.86  E(vib)   ...       0.34
freq.     232.64  E(vib)   ...       0.32
freq.     237.11  E(vib)   ...       0.32
freq.     254.16  E(vib)   ...       0.30
freq.     276.60  E(vib)   ...       0.28
freq.     304.33  E(vib)   ...       0.26
freq.     328.25  E(vib)   ...       0.24
freq.     348.46  E(vib)   ...       0.23
freq.     375.45  E(vib)   ...       0.21
freq.     393.95  E(vib)   ...       0.20
freq.     411.23  E(vib)   ...       0.19
freq.     457.98  E(vib)   ...       0.16
freq.     497.60  E(vib)   ...       0.14
freq.     511.20  E(vib)   ...       0.14
freq.     560.29  E(vib)   ...       0.11
freq.     599.95  E(vib)   ...       0.10
freq.     638.60  E(vib)   ...       0.09
freq.     674.97  E(vib)   ...       0.08
freq.     705.08  E(vib)   ...       0.07
freq.     743.56  E(vib)   ...       0.06
freq.     836.16  E(vib)   ...       0.04
freq.     850.61  E(vib)   ...       0.04
freq.     867.89  E(vib)   ...       0.04
freq.     892.62  E(vib)   ...       0.03
freq.     907.80  E(vib)   ...       0.03
freq.     920.74  E(vib)   ...       0.03
freq.     928.77  E(vib)   ...       0.03
freq.     936.20  E(vib)   ...       0.03
freq.     943.72  E(vib)   ...       0.03
freq.     951.70  E(vib)   ...       0.03
freq.     964.24  E(vib)   ...       0.03
freq.     975.59  E(vib)   ...       0.03
freq.     992.64  E(vib)   ...       0.02
freq.     995.45  E(vib)   ...       0.02
freq.    1010.77  E(vib)   ...       0.02
freq.    1023.20  E(vib)   ...       0.02
freq.    1032.09  E(vib)   ...       0.02
freq.    1059.36  E(vib)   ...       0.02
freq.    1075.84  E(vib)   ...       0.02
freq.    1100.72  E(vib)   ...       0.02
freq.    1118.01  E(vib)   ...       0.01
freq.    1128.84  E(vib)   ...       0.01
freq.    1150.96  E(vib)   ...       0.01
freq.    1179.66  E(vib)   ...       0.01
freq.    1191.23  E(vib)   ...       0.01
freq.    1209.39  E(vib)   ...       0.01
freq.    1223.20  E(vib)   ...       0.01
freq.    1232.39  E(vib)   ...       0.01
freq.    1243.56  E(vib)   ...       0.01
freq.    1246.43  E(vib)   ...       0.01
freq.    1260.78  E(vib)   ...       0.01
freq.    1288.19  E(vib)   ...       0.01
freq.    1293.07  E(vib)   ...       0.01
freq.    1296.35  E(vib)   ...       0.01
freq.    1312.13  E(vib)   ...       0.01
freq.    1319.25  E(vib)   ...       0.01
freq.    1335.74  E(vib)   ...       0.01
freq.    1346.55  E(vib)   ...       0.01
freq.    1361.44  E(vib)   ...       0.01
freq.    1371.42  E(vib)   ...       0.01
freq.    1374.32  E(vib)   ...       0.01
freq.    1385.17  E(vib)   ...       0.00
freq.    1391.66  E(vib)   ...       0.00
freq.    1393.72  E(vib)   ...       0.00
freq.    1409.34  E(vib)   ...       0.00
freq.    1438.86  E(vib)   ...       0.00
freq.    1444.74  E(vib)   ...       0.00
freq.    1448.71  E(vib)   ...       0.00
freq.    1452.45  E(vib)   ...       0.00
freq.    1477.68  E(vib)   ...       0.00
freq.    1505.63  E(vib)   ...       0.00
freq.    1515.93  E(vib)   ...       0.00
freq.    1517.10  E(vib)   ...       0.00
freq.    1520.32  E(vib)   ...       0.00
freq.    1522.78  E(vib)   ...       0.00
freq.    1527.10  E(vib)   ...       0.00
freq.    1534.81  E(vib)   ...       0.00
freq.    1535.62  E(vib)   ...       0.00
freq.    1538.17  E(vib)   ...       0.00
freq.    1543.52  E(vib)   ...       0.00
freq.    1790.58  E(vib)   ...       0.00
freq.    3048.72  E(vib)   ...       0.00
freq.    3086.53  E(vib)   ...       0.00
freq.    3090.17  E(vib)   ...       0.00
freq.    3091.18  E(vib)   ...       0.00
freq.    3094.20  E(vib)   ...       0.00
freq.    3097.99  E(vib)   ...       0.00
freq.    3100.64  E(vib)   ...       0.00
freq.    3109.64  E(vib)   ...       0.00
freq.    3111.99  E(vib)   ...       0.00
freq.    3133.83  E(vib)   ...       0.00
freq.    3140.10  E(vib)   ...       0.00
freq.    3155.41  E(vib)   ...       0.00
freq.    3170.38  E(vib)   ...       0.00
freq.    3172.43  E(vib)   ...       0.00
freq.    3172.93  E(vib)   ...       0.00
freq.    3173.82  E(vib)   ...       0.00
freq.    3174.15  E(vib)   ...       0.00
freq.    3178.86  E(vib)   ...       0.00
freq.    3181.98  E(vib)   ...       0.00
freq.    3194.65  E(vib)   ...       0.00
freq.    3195.58  E(vib)   ...       0.00
freq.    3197.03  E(vib)   ...       0.00
freq.    3202.13  E(vib)   ...       0.00
freq.    3296.80  E(vib)   ...       0.00

------------
INNER ENERGY
------------

The inner energy is: U= E(el) + E(ZPE) + E(vib) + E(rot) + E(trans)
    E(el)   - is the total energy from the electronic structure calculation
              = E(kin-el) + E(nuc-el) + E(el-el) + E(nuc-nuc)
    E(ZPE)  - the the zero temperature vibrational energy from the frequency calculation
    E(vib)  - the the finite temperature correction to E(ZPE) due to population
              of excited vibrational states
    E(rot)  - is the rotational thermal energy
    E(trans)- is the translational thermal energy

Summary of contributions to the inner energy U:
Electronic energy                ...    -99.93524862 Eh
Zero point energy                ...      0.36609612 Eh     229.73 kcal/mol
Thermal vibrational correction   ...      0.01159532 Eh       7.28 kcal/mol
Thermal rotational correction    ...      0.00141627 Eh       0.89 kcal/mol
Thermal translational correction ...      0.00141627 Eh       0.89 kcal/mol
-----------------------------------------------------------------------
Total thermal energy                    -99.55472463 Eh

Summary of corrections to the electronic energy:
(perhaps to be used in another calculation)
Total thermal correction                  0.01442786 Eh       9.05 kcal/mol
Non-thermal (ZPE) correction              0.36609612 Eh     229.73 kcal/mol
-----------------------------------------------------------------------
Total correction                          0.38052398 Eh     238.78 kcal/mol

Rotational constants in cm-1:     0.028975     0.017599     0.012693

                             ****ORCA TERMINATED NORMALLY****
TOTAL RUN TIME: 0 days 0 hours 26 minutes 2 seconds 628 msec
