                         Program Version 6.0.1  -  RELEASE   -
|  1> ! wB97X-3c OPT FREQ TightSCF
|  2> %pal
|  3>   nprocs 40
|  4> end
|  5> * xyz 0 1
|  6> C     -7.559038     1.029241    -0.547666
|  7> C     -6.970539     0.490137     0.755628
|  8> C     -6.172833    -0.811865     0.563040
|  9> C     -4.943811    -0.687181    -0.355577
| 10> C     -3.886174     0.284898     0.188043
| 11> C     -2.602809     0.224921    -0.653340
| 12> C     -1.579251     1.305575    -0.259074
| 13> C     -1.013345     1.150991     1.163713
| 14> C     -0.346167    -0.180830     1.381638
| 15> C      0.795332    -0.505480     0.759312
| 16> C      1.444603    -1.844079     0.994226
| 17> C      2.756001    -1.997372     0.211369
| 18> C      3.872445    -1.102820     0.776883
| 19> C      5.234158    -1.342899     0.100786
| 20> C      5.272494    -1.063257    -1.414026
| 21> C      4.859425     0.360569    -1.835101
| 22> C      5.843205     1.456279    -1.384402
| 23> C      5.536976     1.975594    -0.012586
| 24> O      4.447766     2.569607     0.209922
| 25> O      6.466834     1.825469     1.011544
| 26> H     -8.246848     1.871201    -0.321417
| 27> H     -8.131456     0.236049    -1.073983
| 28> H     -6.755663     1.411312    -1.211227
| 29> H     -6.340210     1.268985     1.233540
| 30> H     -7.809524     0.279606     1.453716
| 31> H     -5.841765    -1.175193     1.560379
| 32> H     -6.849480    -1.588738     0.144803
| 33> H     -4.488622    -1.697920    -0.446090
| 34> H     -5.256072    -0.378649    -1.375816
| 35> H     -3.654019     0.013697     1.239976
| 36> H     -4.285623     1.321067     0.161763
| 37> H     -2.143381    -0.783885    -0.570803
| 38> H     -2.866344     0.382041    -1.722334
| 39> H     -0.740144     1.280088    -0.987741
| 40> H     -2.052388     2.307639    -0.348885
| 41> H     -1.825922     1.280712     1.908697
| 42> H     -0.275116     1.960990     1.350204
| 43> H     -0.800429    -0.880889     2.077903
| 44> H      1.251059     0.204410     0.073411
| 45> H      0.741222    -2.639893     0.665910
| 46> H      1.635588    -1.984051     2.080771
| 47> H      3.078389    -3.059659     0.272243
| 48> H      2.568454    -1.757339    -0.857141
| 49> H      3.589574    -0.034333     0.696819
| 50> H      3.991839    -1.322418     1.860362
| 51> H      5.529792    -2.401896     0.266069
| 52> H      6.002845    -0.724596     0.607425
| 53> H      4.618366    -1.792970    -1.936373
| 54> H      6.303496    -1.260874    -1.780274
| 55> H      4.836963     0.372440    -2.946775
| 56> H      3.821981     0.588997    -1.510968
| 57> H      5.775212     2.310881    -2.091674
| 58> H      6.888853     1.081906    -1.425197
| 59> H      6.274102     2.173783     1.942986
| 60> *
| 61>
| 62>                          ****END OF INPUT****
 Total Charge           Charge          ....    0
 Multiplicity           Mult            ....    1
 Number of Electrons    NEL             ....  118
Dispersion correction           -0.059284831
FINAL SINGLE POINT ENERGY      -155.202343191752
Dispersion correction             ... done (  0.1 sec)
Dispersion correction           -0.059875906
FINAL SINGLE POINT ENERGY      -155.228871386253
Dispersion correction             ... done (  0.1 sec)
Dispersion correction           -0.060066832
FINAL SINGLE POINT ENERGY      -155.232762473557
Dispersion correction             ... done (  0.1 sec)
FINAL SINGLE POINT ENERGY      -155.233707656351
FINAL SINGLE POINT ENERGY      -155.233827358450
FINAL SINGLE POINT ENERGY      -155.234731882408
FINAL SINGLE POINT ENERGY      -155.235292489400
FINAL SINGLE POINT ENERGY      -155.235685720740
FINAL SINGLE POINT ENERGY      -155.236164309793
FINAL SINGLE POINT ENERGY      -155.236709321311
FINAL SINGLE POINT ENERGY      -155.241275529673
FINAL SINGLE POINT ENERGY      -155.240973495055
FINAL SINGLE POINT ENERGY      -155.241300075843
FINAL SINGLE POINT ENERGY      -155.241310990148
FINAL SINGLE POINT ENERGY      -155.241326066335
FINAL SINGLE POINT ENERGY      -155.241337827308
FINAL SINGLE POINT ENERGY      -155.241340362410
Dispersion correction             ... done (  0.1 sec)
Dispersion correction           -0.063159952
FINAL SINGLE POINT ENERGY      -155.241343077481
Dispersion correction             ... done (  0.1 sec)
Dispersion correction           -0.063159084
FINAL SINGLE POINT ENERGY      -155.241343815651
Dispersion correction             ... done (  0.1 sec)
                    ***********************HURRAY********************

CARTESIAN COORDINATES (ANGSTROEM)
---------------------------------
  C     -4.170034    2.693745    1.609754
  C     -2.825861    2.050960    1.898968
  C     -2.898407    0.548046    2.131561
  C     -3.441354   -0.264052    0.963464
  C     -2.671882   -0.061388   -0.330863
  C     -2.974091   -1.123784   -1.372767
  C     -2.292522   -0.893698   -2.716707
  C     -0.792909   -0.626511   -2.638357
  C     -0.007207   -1.678602   -1.926104
  C      1.181698   -2.132317   -2.292446
  C      2.017846   -3.064544   -1.473346
  C      3.067736   -2.320248   -0.647252
  C      2.445814   -1.484150    0.456987
  C      3.435408   -0.699429    1.305226
  C      4.263171    0.335973    0.556685
  C      3.479707    1.455695   -0.115527
  C      2.710571    2.341348    0.855105
  C      1.284090    1.938015    1.081742
  O      0.578057    1.383033    0.284629
  O      0.827105    2.322645    2.281648
  H     -4.078362    3.775678    1.521487
  H     -4.883889    2.483917    2.407410
  H     -4.597680    2.324304    0.678414
  H     -2.139680    2.261978    1.075012
  H     -2.400102    2.521358    2.790851
  H     -1.896654    0.176968    2.368017
  H     -3.510092    0.355348    3.017079
  H     -3.401733   -1.321125    1.239250
  H     -4.499488   -0.040529    0.805584
  H     -1.603919   -0.053415   -0.107179
  H     -2.892523    0.925522   -0.747867
  H     -2.687668   -2.100805   -0.975272
  H     -4.053799   -1.178942   -1.535272
  H     -2.474347   -1.759208   -3.358000
  H     -2.763230   -0.040628   -3.211869
  H     -0.628981    0.322137   -2.120704
  H     -0.393568   -0.495850   -3.645520
  H     -0.424923   -2.051396   -0.995175
  H      1.630834   -1.753929   -3.207980
  H      2.516045   -3.784741   -2.125017
  H      1.375723   -3.639492   -0.802286
  H      3.764842   -3.042860   -0.214425
  H      3.656470   -1.688262   -1.316909
  H      1.714371   -0.804645    0.022853
  H      1.880858   -2.148508    1.117078
  H      4.122853   -1.394174    1.795368
  H      2.888943   -0.210597    2.117136
  H      4.871196   -0.162073   -0.200555
  H      4.974505    0.782424    1.256974
  H      4.186683    2.079877   -0.662457
  H      2.786866    1.056505   -0.856957
  H      2.642914    3.359264    0.464209
  H      3.212417    2.423386    1.818242
  H     -0.111821    2.101773    2.320694

 Multiplicity           Mult            ....    1
 Number of Electrons    NEL             ....  118
 Basis Dimension        Dim             ....  430

ORBITAL ENERGIES
----------------

  NO   OCC          E(Eh)            E(eV)
   0   2.0000      -1.248167       -33.9644
   1   2.0000      -1.147235       -31.2179
   2   2.0000      -0.964524       -26.2460
   3   2.0000      -0.957922       -26.0664
   4   2.0000      -0.946878       -25.7658
   5   2.0000      -0.932018       -25.3615
   6   2.0000      -0.909259       -24.7422
   7   2.0000      -0.888871       -24.1874
   8   2.0000      -0.864581       -23.5264
   9   2.0000      -0.840104       -22.8604
  10   2.0000      -0.818901       -22.2834
  11   2.0000      -0.789636       -21.4871
  12   2.0000      -0.772444       -21.0193
  13   2.0000      -0.745799       -20.2942
  14   2.0000      -0.735341       -20.0097
  15   2.0000      -0.710763       -19.3408
  16   2.0000      -0.689117       -18.7518
  17   2.0000      -0.675968       -18.3940
  18   2.0000      -0.669557       -18.2196
  19   2.0000      -0.659032       -17.9332
  20   2.0000      -0.630010       -17.1434
  21   2.0000      -0.617423       -16.8009
  22   2.0000      -0.608990       -16.5715
  23   2.0000      -0.595812       -16.2129
  24   2.0000      -0.584500       -15.9050
  25   2.0000      -0.581511       -15.8237
  26   2.0000      -0.568776       -15.4772
  27   2.0000      -0.563486       -15.3332
  28   2.0000      -0.562979       -15.3194
  29   2.0000      -0.551232       -14.9998
  30   2.0000      -0.543292       -14.7837
  31   2.0000      -0.533111       -14.5067
  32   2.0000      -0.523345       -14.2409
  33   2.0000      -0.520502       -14.1636
  34   2.0000      -0.513873       -13.9832
  35   2.0000      -0.509843       -13.8735
  36   2.0000      -0.504593       -13.7307
  37   2.0000      -0.497255       -13.5310
  38   2.0000      -0.488890       -13.3034
  39   2.0000      -0.478555       -13.0221
  40   2.0000      -0.476466       -12.9653
  41   2.0000      -0.469917       -12.7871
  42   2.0000      -0.462423       -12.5832
  43   2.0000      -0.457922       -12.4607
  44   2.0000      -0.449643       -12.2354
  45   2.0000      -0.446144       -12.1402
  46   2.0000      -0.441331       -12.0092
  47   2.0000      -0.438410       -11.9297
  48   2.0000      -0.432171       -11.7600
  49   2.0000      -0.428779       -11.6677
  50   2.0000      -0.419279       -11.4092
  51   2.0000      -0.418295       -11.3824
  52   2.0000      -0.413472       -11.2511
  53   2.0000      -0.412621       -11.2280
  54   2.0000      -0.409998       -11.1566
  55   2.0000      -0.403350       -10.9757
  56   2.0000      -0.401207       -10.9174
  57   2.0000      -0.394878       -10.7452
  58   2.0000      -0.331346        -9.0164
  59   0.0000       0.073406         1.9975
  60   0.0000       0.077923         2.1204
  61   0.0000       0.089265         2.4290
  62   0.0000       0.092833         2.5261
  63   0.0000       0.095826         2.6076

MULLIKEN ATOMIC CHARGES
-----------------------
   0 C :   -0.050080
   1 C :   -0.109997
   2 C :   -0.040346
   3 C :   -0.054078
   4 C :   -0.036925
   5 C :   -0.061791
   6 C :   -0.043289
   7 C :   -0.054599
   8 C :    0.010448
   9 C :   -0.041095
  10 C :   -0.053832
  11 C :   -0.055034
  12 C :   -0.034815
  13 C :   -0.055975
  14 C :   -0.050087
  15 C :   -0.039714
  16 C :   -0.075026
  17 C :    0.197997
  18 O :   -0.300960
  19 O :   -0.179618
  20 H :    0.031151
  21 H :    0.026303
  22 H :    0.020801
  23 H :    0.035334
  24 H :    0.032069
  25 H :    0.015384
  26 H :    0.027776
  27 H :    0.027367
  28 H :    0.019733
  29 H :    0.042072
  30 H :    0.025739
  31 H :    0.019777
  32 H :    0.026793
  33 H :    0.031001
  34 H :    0.024762
  35 H :    0.041793
  36 H :    0.027019
  37 H :   -0.010102
  38 H :    0.007201
  39 H :    0.035117
  40 H :    0.027687
  41 H :    0.025104
  42 H :    0.021605
  43 H :    0.040981
  44 H :    0.027016
  45 H :    0.027280
  46 H :    0.025272
  47 H :    0.024630
  48 H :    0.026296
  49 H :    0.037815
  50 H :    0.044562
  51 H :    0.068717
  52 H :    0.052399
  53 H :    0.172362
Sum of atomic charges:   -0.0000000

LOEWDIN ATOMIC CHARGES
----------------------
   0 C :   -0.111229
   1 C :   -0.101237
   2 C :   -0.087412
   3 C :   -0.082757
   4 C :   -0.082092
   5 C :   -0.086681
   6 C :   -0.082450
   7 C :   -0.087523
   8 C :   -0.039094
   9 C :   -0.050121
  10 C :   -0.088961
  11 C :   -0.080372
  12 C :   -0.081212
  13 C :   -0.085653
  14 C :   -0.086432
  15 C :   -0.071822
  16 C :   -0.062773
  17 C :   -0.034584
  18 O :   -0.138743
  19 O :    0.018839
  20 H :    0.044654
  21 H :    0.042864
  22 H :    0.041107
  23 H :    0.039531
  24 H :    0.039189
  25 H :    0.040680
  26 H :    0.044352
  27 H :    0.045937
  28 H :    0.038687
  29 H :    0.041195
  30 H :    0.040441
  31 H :    0.038053
  32 H :    0.044576
  33 H :    0.044254
  34 H :    0.043994
  35 H :    0.049418
  36 H :    0.048802
  37 H :    0.034668
  38 H :    0.033970
  39 H :    0.046730
  40 H :    0.047403
  41 H :    0.042200
  42 H :    0.038259
  43 H :    0.037778
  44 H :    0.043626
  45 H :    0.045977
  46 H :    0.042121
  47 H :    0.044078
  48 H :    0.044639
  49 H :    0.049326
  50 H :    0.049529
  51 H :    0.068054
  52 H :    0.060253
  53 H :    0.065962

  Mayer bond orders larger than 0.100000
B(  0-C ,  1-C ) :   1.0019 B(  0-C , 20-H ) :   0.9959 B(  0-C , 21-H ) :   0.9933
B(  0-C , 22-H ) :   0.9969 B(  1-C ,  2-C ) :   0.9837 B(  1-C , 23-H ) :   0.9909
B(  1-C , 24-H ) :   0.9978 B(  2-C ,  3-C ) :   0.9999 B(  2-C , 25-H ) :   0.9991
B(  2-C , 26-H ) :   0.9976 B(  3-C ,  4-C ) :   0.9844 B(  3-C , 27-H ) :   0.9993
B(  3-C , 28-H ) :   0.9975 B(  4-C ,  5-C ) :   0.9832 B(  4-C , 29-H ) :   0.9822
B(  4-C , 30-H ) :   0.9952 B(  5-C ,  6-C ) :   0.9985 B(  5-C , 31-H ) :   0.9993
B(  5-C , 32-H ) :   0.9985 B(  6-C ,  7-C ) :   0.9900 B(  6-C , 33-H ) :   0.9954
B(  6-C , 34-H ) :   0.9990 B(  7-C ,  8-C ) :   1.0135 B(  7-C , 35-H ) :   0.9780
B(  7-C , 36-H ) :   0.9979 B(  8-C ,  9-C ) :   1.9060 B(  8-C , 37-H ) :   1.0005
B(  9-C , 10-C ) :   1.0209 B(  9-C , 38-H ) :   0.9988 B( 10-C , 11-C ) :   0.9932
B( 10-C , 39-H ) :   0.9930 B( 10-C , 40-H ) :   0.9934 B( 11-C , 12-C ) :   0.9729
B( 11-C , 41-H ) :   0.9970 B( 11-C , 42-H ) :   0.9939 B( 12-C , 13-C ) :   1.0052
B( 12-C , 43-H ) :   0.9775 B( 12-C , 44-H ) :   0.9985 B( 13-C , 14-C ) :   0.9849
B( 13-C , 45-H ) :   0.9970 B( 13-C , 46-H ) :   0.9967 B( 14-C , 15-C ) :   0.9882
B( 14-C , 47-H ) :   1.0015 B( 14-C , 48-H ) :   0.9986 B( 15-C , 16-C ) :   0.9873
B( 15-C , 49-H ) :   1.0005 B( 15-C , 50-H ) :   0.9862 B( 16-C , 17-C ) :   1.0300
B( 16-C , 51-H ) :   0.9710 B( 16-C , 52-H ) :   0.9807 B( 17-C , 18-O ) :   1.9499
B( 17-C , 19-O ) :   1.1742 B( 19-O , 53-H ) :   1.0063

Dispersion correction           -0.063166587
FINAL SINGLE POINT ENERGY      -155.241344856109

DIPOLE MOMENT
-------------

Method             : SCF
Type of density    : Electron Density
Multiplicity       :   1
Irrep              :   0
Energy             :  -155.1781782687794760 Eh
Relativity type    :
Basis              : AO
                                X                 Y                 Z
Electronic contribution:      9.179656182       0.290551615      -2.217375514
Nuclear contribution   :     -8.818144366       0.164720673       2.589360994
                        -----------------------------------------
Total Dipole Moment    :      0.361511816       0.455272288       0.371985480
                        -----------------------------------------
Magnitude (a.u.)       :      0.690171607
Magnitude (Debye)      :      1.754276810

VIBRATIONAL FREQUENCIES
-----------------------

Scaling factor for frequencies =  1.000000000  (already applied!)

     0:       0.00 cm**-1
     1:       0.00 cm**-1
     2:       0.00 cm**-1
     3:       0.00 cm**-1
     4:       0.00 cm**-1
     5:       0.00 cm**-1
     6:      20.66 cm**-1
     7:      24.90 cm**-1
     8:      31.59 cm**-1
     9:      36.42 cm**-1
    10:      43.79 cm**-1
    11:      46.82 cm**-1
    12:      55.17 cm**-1
    13:      66.75 cm**-1
    14:      71.78 cm**-1
    15:      95.75 cm**-1
    16:     103.16 cm**-1
    17:     130.43 cm**-1
    18:     134.80 cm**-1
    19:     152.24 cm**-1
    20:     178.73 cm**-1
    21:     184.15 cm**-1
    22:     204.34 cm**-1
    23:     224.45 cm**-1
    24:     258.97 cm**-1
    25:     263.80 cm**-1
    26:     274.97 cm**-1
    27:     291.40 cm**-1
    28:     301.57 cm**-1
    29:     303.34 cm**-1
    30:     336.00 cm**-1
    31:     384.46 cm**-1
    32:     392.87 cm**-1
    33:     410.68 cm**-1
    34:     453.74 cm**-1
    35:     481.46 cm**-1
    36:     500.12 cm**-1
    37:     514.85 cm**-1
    38:     536.76 cm**-1
    39:     541.27 cm**-1
    40:     572.12 cm**-1
    41:     640.75 cm**-1
    42:     693.84 cm**-1
    43:     736.80 cm**-1
    44:     746.45 cm**-1
    45:     750.68 cm**-1
    46:     788.66 cm**-1
    47:     794.23 cm**-1
    48:     821.88 cm**-1
    49:     835.02 cm**-1
    50:     854.20 cm**-1
    51:     872.09 cm**-1
    52:     886.22 cm**-1
    53:     890.30 cm**-1
    54:     903.87 cm**-1
    55:     932.04 cm**-1
    56:     941.78 cm**-1
    57:     957.66 cm**-1
    58:     980.87 cm**-1
    59:     994.16 cm**-1
    60:     997.12 cm**-1
    61:    1006.30 cm**-1
    62:    1017.68 cm**-1
    63:    1030.47 cm**-1
    64:    1053.01 cm**-1
    65:    1060.59 cm**-1
    66:    1080.28 cm**-1
    67:    1088.44 cm**-1
    68:    1104.66 cm**-1
    69:    1115.94 cm**-1
    70:    1128.24 cm**-1
    71:    1141.00 cm**-1
    72:    1149.91 cm**-1
    73:    1157.16 cm**-1
    74:    1163.01 cm**-1
    75:    1163.32 cm**-1
    76:    1172.03 cm**-1
    77:    1197.78 cm**-1
    78:    1211.33 cm**-1
    79:    1213.58 cm**-1
    80:    1220.78 cm**-1
    81:    1239.83 cm**-1
    82:    1258.21 cm**-1
    83:    1287.87 cm**-1
    84:    1288.71 cm**-1
    85:    1302.05 cm**-1
    86:    1305.16 cm**-1
    87:    1325.20 cm**-1
    88:    1334.92 cm**-1
    89:    1339.43 cm**-1
    90:    1349.40 cm**-1
    91:    1355.85 cm**-1
    92:    1356.29 cm**-1
    93:    1361.28 cm**-1
    94:    1368.86 cm**-1
    95:    1374.96 cm**-1
    96:    1382.09 cm**-1
    97:    1394.57 cm**-1
    98:    1402.25 cm**-1
    99:    1409.45 cm**-1
   100:    1420.00 cm**-1
   101:    1424.93 cm**-1
   102:    1431.84 cm**-1
   103:    1435.23 cm**-1
   104:    1437.18 cm**-1
   105:    1444.31 cm**-1
   106:    1451.02 cm**-1
   107:    1460.01 cm**-1
   108:    1468.22 cm**-1
   109:    1474.65 cm**-1
   110:    1496.75 cm**-1
   111:    1507.03 cm**-1
   112:    1510.38 cm**-1
   113:    1514.32 cm**-1
   114:    1519.40 cm**-1
   115:    1519.50 cm**-1
   116:    1522.18 cm**-1
   117:    1523.70 cm**-1
   118:    1524.11 cm**-1
   119:    1527.42 cm**-1
   120:    1527.97 cm**-1
   121:    1529.05 cm**-1
   122:    1534.61 cm**-1
   123:    1539.33 cm**-1
   124:    1542.93 cm**-1
   125:    1546.96 cm**-1
   126:    1800.00 cm**-1
   127:    1883.29 cm**-1
   128:    3069.30 cm**-1
   129:    3076.62 cm**-1
   130:    3079.76 cm**-1
   131:    3082.29 cm**-1
   132:    3083.86 cm**-1
   133:    3087.89 cm**-1
   134:    3089.10 cm**-1
   135:    3090.09 cm**-1
   136:    3092.65 cm**-1
   137:    3095.79 cm**-1
   138:    3098.03 cm**-1
   139:    3098.95 cm**-1
   140:    3101.26 cm**-1
   141:    3112.56 cm**-1
   142:    3120.79 cm**-1
   143:    3121.63 cm**-1
   144:    3124.11 cm**-1
   145:    3126.17 cm**-1
   146:    3131.04 cm**-1
   147:    3134.73 cm**-1
   148:    3137.32 cm**-1
   149:    3140.61 cm**-1
   150:    3147.73 cm**-1
   151:    3151.29 cm**-1
   152:    3151.92 cm**-1
   153:    3158.97 cm**-1
   154:    3171.58 cm**-1
   155:    3181.32 cm**-1
   156:    3182.55 cm**-1
   157:    3187.37 cm**-1
   158:    3190.10 cm**-1
   159:    3194.91 cm**-1
   160:    3202.57 cm**-1
   161:    3855.85 cm**-1

IR SPECTRUM
-----------

 Mode   freq       eps      Int      T**2         TX        TY        TZ
       cm**-1   L/(mol*cm) km/mol    a.u.
----------------------------------------------------------------------------
  6:     20.66   0.000062    0.31  0.000936  ( 0.023131  0.012366 -0.015748)
  7:     24.90   0.000032    0.16  0.000405  (-0.011918 -0.012169  0.010729)
  8:     31.59   0.000121    0.61  0.001198  ( 0.000796 -0.026016  0.022806)
  9:     36.42   0.000037    0.19  0.000316  (-0.011245  0.009595  0.009856)
 10:     43.79   0.000031    0.16  0.000220  (-0.013450  0.006057  0.001584)
 11:     46.82   0.000107    0.54  0.000713  (-0.021341  0.015582  0.003862)
 12:     55.17   0.000102    0.52  0.000579  ( 0.020394  0.007440 -0.010356)
 13:     66.75   0.000023    0.12  0.000109  ( 0.002705 -0.006209  0.007966)
 14:     71.78   0.000040    0.20  0.000176  ( 0.010263 -0.001298  0.008297)
 15:     95.75   0.000403    2.03  0.001312  ( 0.019547 -0.030324 -0.003279)
 16:    103.16   0.000018    0.09  0.000054  ( 0.003237  0.000745  0.006543)
 17:    130.43   0.000115    0.58  0.000276  (-0.015925 -0.002140 -0.004251)
 18:    134.80   0.000005    0.02  0.000011  ( 0.001580 -0.002833 -0.000700)
 19:    152.24   0.000041    0.21  0.000084  ( 0.008027  0.004210  0.001457)
 20:    178.73   0.000019    0.10  0.000034  (-0.005226 -0.002549 -0.000077)
 21:    184.15   0.000032    0.16  0.000055  ( 0.002594 -0.001678 -0.006740)
 22:    204.34   0.000225    1.14  0.000344  (-0.018108 -0.003964 -0.000113)
 23:    224.45   0.000105    0.53  0.000146  (-0.000479 -0.009956 -0.006801)
 24:    258.97   0.000050    0.25  0.000060  ( 0.006674  0.000617  0.003935)
 25:    263.80   0.000035    0.17  0.000041  (-0.004846 -0.001328 -0.003947)
 26:    274.97   0.000177    0.89  0.000201  (-0.004645 -0.011302 -0.007160)
 27:    291.40   0.000012    0.06  0.000013  (-0.001422  0.000416  0.003332)
 28:    301.57   0.000014    0.07  0.000014  (-0.000232  0.002936  0.002376)
 29:    303.34   0.000743    3.76  0.000765  ( 0.027447  0.003302  0.000520)
 30:    336.00   0.000143    0.72  0.000133  (-0.001250  0.003250  0.010991)
 31:    384.46   0.000109    0.55  0.000088  (-0.003393  0.003793 -0.007897)
 32:    392.87   0.000045    0.23  0.000035  (-0.002241 -0.004721 -0.002856)
 33:    410.68   0.000334    1.69  0.000253  (-0.000830  0.006310  0.014593)
 34:    453.74   0.000853    4.31  0.000586  (-0.000380 -0.011849 -0.021116)
 35:    481.46   0.000016    0.08  0.000010  (-0.002001 -0.001874  0.001602)
 36:    500.12   0.000377    1.90  0.000235  (-0.005061 -0.006133  0.013106)
 37:    514.85   0.000018    0.09  0.000011  ( 0.001320 -0.001827  0.002401)
 38:    536.76   0.001476    7.46  0.000858  (-0.017987  0.021895 -0.007446)
 39:    541.27   0.003489   17.63  0.002011  ( 0.033927 -0.024782 -0.015692)
 40:    572.12   0.000123    0.62  0.000067  ( 0.000413  0.002979  0.007607)
 41:    640.75   0.005511   27.85  0.002684  ( 0.016123  0.036184 -0.033388)
 42:    693.84   0.014014   70.82  0.006303  ( 0.043569 -0.065030  0.013257)
 43:    736.80   0.002153   10.88  0.000912  (-0.017310  0.023902  0.006398)
 44:    746.45   0.000516    2.61  0.000216  ( 0.012431  0.002379 -0.007440)
 45:    750.68   0.000967    4.89  0.000402  ( 0.001951  0.018603  0.007213)
 46:    788.66   0.001685    8.52  0.000667  (-0.016736 -0.019615 -0.001433)
 47:    794.23   0.000297    1.50  0.000117  ( 0.002434  0.001884 -0.010346)
 48:    821.88   0.002106   10.64  0.000800  ( 0.007855 -0.008108 -0.025926)
 49:    835.02   0.000760    3.84  0.000284  ( 0.001746  0.015408 -0.006612)
 50:    854.20   0.000747    3.77  0.000273  ( 0.013541 -0.009293  0.001760)
 51:    872.09   0.000502    2.54  0.000180  (-0.011887 -0.005702  0.002397)
 52:    886.22   0.000665    3.36  0.000234  ( 0.012409 -0.007600 -0.004737)
 53:    890.30   0.000265    1.34  0.000093  ( 0.000213 -0.001698 -0.009482)
 54:    903.87   0.000155    0.79  0.000054  ( 0.004358  0.002208  0.005461)
 55:    932.04   0.000465    2.35  0.000156  ( 0.003035  0.011321 -0.004284)
 56:    941.78   0.000428    2.16  0.000142  ( 0.001984  0.007996 -0.008603)
 57:    957.66   0.000162    0.82  0.000053  ( 0.000241  0.007269  0.000097)
 58:    980.87   0.000489    2.47  0.000156  (-0.003885 -0.001967  0.011689)
 59:    994.16   0.000665    3.36  0.000209  (-0.012838  0.006519 -0.001176)
 60:    997.12   0.000718    3.63  0.000225  (-0.001719  0.014111  0.004753)
 61:   1006.30   0.000659    3.33  0.000204  (-0.004313  0.013101  0.003749)
 62:   1017.68   0.008806   44.50  0.002700  ( 0.024203  0.035042  0.029777)
 63:   1030.47   0.000437    2.21  0.000132  ( 0.008331  0.000229  0.007938)
 64:   1053.01   0.000578    2.92  0.000171  ( 0.002852 -0.008088 -0.009882)
 65:   1060.59   0.000210    1.06  0.000062  ( 0.005834  0.004739 -0.002274)
 66:   1080.28   0.000341    1.73  0.000099  (-0.002427  0.006393  0.007202)
 67:   1088.44   0.000522    2.64  0.000150  ( 0.012217  0.000283  0.000446)
 68:   1104.66   0.000534    2.70  0.000151  ( 0.005418  0.005085  0.009773)
 69:   1115.94   0.000147    0.74  0.000041  ( 0.003891  0.001906  0.004720)
 70:   1128.24   0.000275    1.39  0.000076  ( 0.005110 -0.007009 -0.000873)
 71:   1141.00   0.000294    1.48  0.000080  (-0.001957 -0.006492 -0.005858)
 72:   1149.91   0.003838   19.40  0.001042  ( 0.015208 -0.012004 -0.025813)
 73:   1157.16   0.000488    2.47  0.000132  ( 0.011003 -0.001889 -0.002630)
 74:   1163.01   0.000379    1.92  0.000102  ( 0.007983 -0.000907  0.006105)
 75:   1163.32   0.000142    0.72  0.000038  (-0.001168  0.005065  0.003332)
 76:   1172.03   0.004423   22.35  0.001178  (-0.012525  0.013114  0.029136)
 77:   1197.78   0.014643   74.00  0.003815  ( 0.033995 -0.022798 -0.046257)
 78:   1211.33   0.000411    2.08  0.000106  ( 0.005807  0.002439 -0.008138)
 79:   1213.58   0.004546   22.97  0.001169  ( 0.021718 -0.003946 -0.026109)
 80:   1220.78   0.014926   75.43  0.003816  (-0.030563  0.016343  0.051131)
 81:   1239.83   0.006352   32.10  0.001599  (-0.024154  0.010395  0.030122)
 82:   1258.21   0.003146   15.90  0.000780  ( 0.019607 -0.001338 -0.019853)
 83:   1287.87   0.000551    2.78  0.000133  ( 0.005882 -0.008948 -0.004333)
 84:   1288.71   0.000109    0.55  0.000026  ( 0.003964  0.002352  0.002251)
 85:   1302.05   0.000625    3.16  0.000150  ( 0.008203 -0.008912 -0.001726)
 86:   1305.16   0.000202    1.02  0.000048  (-0.004021  0.004855  0.002910)
 87:   1325.20   0.000336    1.70  0.000079  (-0.001584  0.001771  0.008573)
 88:   1334.92   0.000560    2.83  0.000131  (-0.010540 -0.000314  0.004447)
 89:   1339.43   0.000726    3.67  0.000169  ( 0.012684 -0.001577  0.002387)
 90:   1349.40   0.000986    4.98  0.000228  ( 0.011154 -0.007440 -0.006939)
 91:   1355.85   0.000444    2.24  0.000102  ( 0.008154 -0.000823  0.005919)
 92:   1356.29   0.000380    1.92  0.000088  (-0.006986  0.002308  0.005780)
 93:   1361.28   0.001411    7.13  0.000324  ( 0.001963 -0.003939  0.017440)
 94:   1368.86   0.000083    0.42  0.000019  (-0.000840 -0.002970  0.003053)
 95:   1374.96   0.000133    0.67  0.000030  ( 0.005200  0.001539  0.000882)
 96:   1382.09   0.000025    0.13  0.000006  (-0.000558  0.001826 -0.001420)
 97:   1394.57   0.000036    0.18  0.000008  (-0.001340  0.002196  0.001224)
 98:   1402.25   0.000218    1.10  0.000049  (-0.005261 -0.004391  0.001243)
 99:   1409.45   0.000768    3.88  0.000170  (-0.005517 -0.003866  0.011167)
100:   1420.00   0.000780    3.94  0.000171  (-0.010347  0.005369  0.005960)
101:   1424.93   0.000122    0.61  0.000027  ( 0.003336 -0.002833  0.002731)
102:   1431.84   0.002962   14.97  0.000645  ( 0.011443 -0.012167 -0.019144)
103:   1435.23   0.000385    1.95  0.000084  (-0.005994  0.005470  0.004231)
104:   1437.18   0.001174    5.93  0.000255  ( 0.013796 -0.006794 -0.004289)
105:   1444.31   0.000253    1.28  0.000055  ( 0.005324  0.005001  0.001103)
106:   1451.02   0.001602    8.10  0.000345  ( 0.014966 -0.010848  0.001723)
107:   1460.01   0.001374    6.95  0.000294  (-0.006050  0.006140  0.014814)
108:   1468.22   0.000048    0.24  0.000010  (-0.000501 -0.000451 -0.003124)
109:   1474.65   0.015129   76.46  0.003202  ( 0.036153 -0.015415 -0.040705)
110:   1496.75   0.005226   26.41  0.001090  (-0.027098 -0.017243  0.007618)
111:   1507.03   0.000282    1.43  0.000058  (-0.005245 -0.005281  0.001729)
112:   1510.38   0.001299    6.56  0.000268  ( 0.015108  0.004661  0.004289)
113:   1514.32   0.000234    1.18  0.000048  ( 0.006119  0.003179 -0.000830)
114:   1519.40   0.003034   15.33  0.000623  (-0.013470 -0.013601  0.016025)
115:   1519.50   0.000443    2.24  0.000091  ( 0.002725  0.001664  0.008985)
116:   1522.18   0.000630    3.18  0.000129  ( 0.002591  0.010390 -0.003805)
117:   1523.70   0.001964    9.92  0.000402  ( 0.003921  0.004337 -0.019183)
118:   1524.11   0.002557   12.92  0.000524  ( 0.007126  0.019989 -0.008553)
119:   1527.42   0.001710    8.64  0.000349  (-0.003519 -0.000305  0.018353)
120:   1527.97   0.000416    2.10  0.000085  ( 0.008268  0.002339  0.003329)
121:   1529.05   0.003716   18.78  0.000758  (-0.022768 -0.004374 -0.014864)
122:   1534.61   0.000865    4.37  0.000176  ( 0.007238  0.006168 -0.009239)
123:   1539.33   0.002909   14.70  0.000590  ( 0.016924  0.016334  0.006037)
124:   1542.93   0.001638    8.28  0.000331  ( 0.015359  0.000093  0.009770)
125:   1546.96   0.000239    1.21  0.000048  (-0.003265  0.005750 -0.002124)
126:   1800.00   0.000144    0.73  0.000025  ( 0.001591  0.004719  0.000444)
127:   1883.29   0.068112  344.21  0.011286  ( 0.054097  0.056121  0.072182)
128:   3069.30   0.003497   17.67  0.000356  (-0.010233 -0.015237  0.004317)
129:   3076.62   0.003048   15.40  0.000309  (-0.000749  0.000087  0.017567)
130:   3079.76   0.011624   58.74  0.001178  (-0.026030 -0.004719 -0.021862)
131:   3082.29   0.001417    7.16  0.000143  ( 0.003655  0.005290 -0.010104)
132:   3083.86   0.002139   10.81  0.000216  (-0.014550  0.001890 -0.001064)
133:   3087.89   0.001220    6.16  0.000123  ( 0.001588  0.010257 -0.003940)
134:   3089.10   0.006271   31.69  0.000634  (-0.013063  0.005638 -0.020763)
135:   3090.09   0.013580   68.63  0.001371  ( 0.035124  0.011716  0.000653)
136:   3092.65   0.014839   74.99  0.001497  (-0.024808 -0.029687  0.000766)
137:   3095.79   0.005147   26.01  0.000519  ( 0.002803 -0.006368 -0.021689)
138:   3098.03   0.011433   57.78  0.001152  ( 0.014693 -0.026867  0.014625)
139:   3098.95   0.002779   14.04  0.000280  (-0.001382 -0.004188 -0.016136)
140:   3101.26   0.005768   29.15  0.000580  ( 0.022585 -0.008083 -0.002222)
141:   3112.56   0.003037   15.35  0.000304  ( 0.012277 -0.000327 -0.012396)
142:   3120.79   0.002722   13.75  0.000272  (-0.014205 -0.008246  0.001539)
143:   3121.63   0.002826   14.28  0.000283  (-0.008308 -0.014130  0.003720)
144:   3124.11   0.005593   28.27  0.000559  (-0.017365  0.015522 -0.004027)
145:   3126.17   0.004059   20.51  0.000405  (-0.017466  0.002630 -0.009654)
146:   3131.04   0.003552   17.95  0.000354  (-0.002994 -0.011896  0.014265)
147:   3134.73   0.007097   35.86  0.000706  ( 0.008554 -0.024970  0.003133)
148:   3137.32   0.008695   43.94  0.000865  (-0.023191  0.011327  0.014099)
149:   3140.61   0.004269   21.57  0.000424  ( 0.006284  0.014690 -0.012995)
150:   3147.73   0.002678   13.54  0.000266  (-0.005043  0.004548  0.014813)
151:   3151.29   0.010935   55.26  0.001083  (-0.014875  0.017203  0.023784)
152:   3151.92   0.002494   12.60  0.000247  (-0.009702 -0.006138  0.010730)
153:   3158.97   0.010575   53.44  0.001045  (-0.025017  0.019050 -0.007480)
154:   3171.58   0.002140   10.82  0.000211  ( 0.007458  0.012444  0.000330)
155:   3181.32   0.001073    5.42  0.000105  ( 0.003249  0.009664  0.001146)
156:   3182.55   0.002518   12.72  0.000247  (-0.008798  0.005527 -0.011788)
157:   3187.37   0.004279   21.63  0.000419  (-0.007083 -0.010834  0.015857)
158:   3190.10   0.004711   23.81  0.000461  ( 0.008022  0.004452 -0.019408)
159:   3194.91   0.004239   21.42  0.000414  ( 0.004188  0.013896  0.014263)
160:   3202.57   0.003826   19.34  0.000373  ( 0.003551  0.007911 -0.017252)
161:   3855.85   0.039511  199.67  0.003198  ( 0.055804  0.003819 -0.008311)

--------------------------
THERMOCHEMISTRY AT 298.15K
--------------------------

Temperature         ...   298.15 K
Pressure            ...     1.00 atm
Total Mass          ...   282.47 AMU
Quasi RRHO          ...     True
Cut-Off Frequency   ...     1.00 cm^-1

Throughout the following assumptions are being made:
  (1) The electronic state is orbitally nondegenerate
  (2) There are no thermally accessible electronically excited states
  (3) Hindered rotations indicated by low frequency modes are not
      treated as such but are treated as vibrations and this may
      cause some error
  (4) All equations used are the standard statistical mechanics
      equations for an ideal gas
  (5) All vibrations are strictly harmonic

freq.      20.66  E(vib)   ...       0.56
freq.      24.90  E(vib)   ...       0.56
freq.      31.59  E(vib)   ...       0.55
freq.      36.42  E(vib)   ...       0.54
freq.      43.79  E(vib)   ...       0.53
freq.      46.82  E(vib)   ...       0.53
freq.      55.17  E(vib)   ...       0.52
freq.      66.75  E(vib)   ...       0.50
freq.      71.78  E(vib)   ...       0.50
freq.      95.75  E(vib)   ...       0.47
freq.     103.16  E(vib)   ...       0.46
freq.     130.43  E(vib)   ...       0.43
freq.     134.80  E(vib)   ...       0.42
freq.     152.24  E(vib)   ...       0.40
freq.     178.73  E(vib)   ...       0.37
freq.     184.15  E(vib)   ...       0.37
freq.     204.34  E(vib)   ...       0.35
freq.     224.45  E(vib)   ...       0.33
freq.     258.97  E(vib)   ...       0.30
freq.     263.80  E(vib)   ...       0.29
freq.     274.97  E(vib)   ...       0.28
freq.     291.40  E(vib)   ...       0.27
freq.     301.57  E(vib)   ...       0.26
freq.     303.34  E(vib)   ...       0.26
freq.     336.00  E(vib)   ...       0.24
freq.     384.46  E(vib)   ...       0.20
freq.     392.87  E(vib)   ...       0.20
freq.     410.68  E(vib)   ...       0.19
freq.     453.74  E(vib)   ...       0.16
freq.     481.46  E(vib)   ...       0.15
freq.     500.12  E(vib)   ...       0.14
freq.     514.85  E(vib)   ...       0.13
freq.     536.76  E(vib)   ...       0.12
freq.     541.27  E(vib)   ...       0.12
freq.     572.12  E(vib)   ...       0.11
freq.     640.75  E(vib)   ...       0.09
freq.     693.84  E(vib)   ...       0.07
freq.     736.80  E(vib)   ...       0.06
freq.     746.45  E(vib)   ...       0.06
freq.     750.68  E(vib)   ...       0.06
freq.     788.66  E(vib)   ...       0.05
freq.     794.23  E(vib)   ...       0.05
freq.     821.88  E(vib)   ...       0.05
freq.     835.02  E(vib)   ...       0.04
freq.     854.20  E(vib)   ...       0.04
freq.     872.09  E(vib)   ...       0.04
freq.     886.22  E(vib)   ...       0.04
freq.     890.30  E(vib)   ...       0.04
freq.     903.87  E(vib)   ...       0.03
freq.     932.04  E(vib)   ...       0.03
freq.     941.78  E(vib)   ...       0.03
freq.     957.66  E(vib)   ...       0.03
freq.     980.87  E(vib)   ...       0.02
freq.     994.16  E(vib)   ...       0.02
freq.     997.12  E(vib)   ...       0.02
freq.    1006.30  E(vib)   ...       0.02
freq.    1017.68  E(vib)   ...       0.02
freq.    1030.47  E(vib)   ...       0.02
freq.    1053.01  E(vib)   ...       0.02
freq.    1060.59  E(vib)   ...       0.02
freq.    1080.28  E(vib)   ...       0.02
freq.    1088.44  E(vib)   ...       0.02
freq.    1104.66  E(vib)   ...       0.02
freq.    1115.94  E(vib)   ...       0.01
freq.    1128.24  E(vib)   ...       0.01
freq.    1141.00  E(vib)   ...       0.01
freq.    1149.91  E(vib)   ...       0.01
freq.    1157.16  E(vib)   ...       0.01
freq.    1163.01  E(vib)   ...       0.01
freq.    1163.32  E(vib)   ...       0.01
freq.    1172.03  E(vib)   ...       0.01
freq.    1197.78  E(vib)   ...       0.01
freq.    1211.33  E(vib)   ...       0.01
freq.    1213.58  E(vib)   ...       0.01
freq.    1220.78  E(vib)   ...       0.01
freq.    1239.83  E(vib)   ...       0.01
freq.    1258.21  E(vib)   ...       0.01
freq.    1287.87  E(vib)   ...       0.01
freq.    1288.71  E(vib)   ...       0.01
freq.    1302.05  E(vib)   ...       0.01
freq.    1305.16  E(vib)   ...       0.01
freq.    1325.20  E(vib)   ...       0.01
freq.    1334.92  E(vib)   ...       0.01
freq.    1339.43  E(vib)   ...       0.01
freq.    1349.40  E(vib)   ...       0.01
freq.    1355.85  E(vib)   ...       0.01
freq.    1356.29  E(vib)   ...       0.01
freq.    1361.28  E(vib)   ...       0.01
freq.    1368.86  E(vib)   ...       0.01
freq.    1374.96  E(vib)   ...       0.01
freq.    1382.09  E(vib)   ...       0.01
freq.    1394.57  E(vib)   ...       0.00
freq.    1402.25  E(vib)   ...       0.00
freq.    1409.45  E(vib)   ...       0.00
freq.    1420.00  E(vib)   ...       0.00
freq.    1424.93  E(vib)   ...       0.00
freq.    1431.84  E(vib)   ...       0.00
freq.    1435.23  E(vib)   ...       0.00
freq.    1437.18  E(vib)   ...       0.00
freq.    1444.31  E(vib)   ...       0.00
freq.    1451.02  E(vib)   ...       0.00
freq.    1460.01  E(vib)   ...       0.00
freq.    1468.22  E(vib)   ...       0.00
freq.    1474.65  E(vib)   ...       0.00
freq.    1496.75  E(vib)   ...       0.00
freq.    1507.03  E(vib)   ...       0.00
freq.    1510.38  E(vib)   ...       0.00
freq.    1514.32  E(vib)   ...       0.00
freq.    1519.40  E(vib)   ...       0.00
freq.    1519.50  E(vib)   ...       0.00
freq.    1522.18  E(vib)   ...       0.00
freq.    1523.70  E(vib)   ...       0.00
freq.    1524.11  E(vib)   ...       0.00
freq.    1527.42  E(vib)   ...       0.00
freq.    1527.97  E(vib)   ...       0.00
freq.    1529.05  E(vib)   ...       0.00
freq.    1534.61  E(vib)   ...       0.00
freq.    1539.33  E(vib)   ...       0.00
freq.    1542.93  E(vib)   ...       0.00
freq.    1546.96  E(vib)   ...       0.00
freq.    1800.00  E(vib)   ...       0.00
freq.    1883.29  E(vib)   ...       0.00
freq.    3069.30  E(vib)   ...       0.00
freq.    3076.62  E(vib)   ...       0.00
freq.    3079.76  E(vib)   ...       0.00
freq.    3082.29  E(vib)   ...       0.00
freq.    3083.86  E(vib)   ...       0.00
freq.    3087.89  E(vib)   ...       0.00
freq.    3089.10  E(vib)   ...       0.00
freq.    3090.09  E(vib)   ...       0.00
freq.    3092.65  E(vib)   ...       0.00
freq.    3095.79  E(vib)   ...       0.00
freq.    3098.03  E(vib)   ...       0.00
freq.    3098.95  E(vib)   ...       0.00
freq.    3101.26  E(vib)   ...       0.00
freq.    3112.56  E(vib)   ...       0.00
freq.    3120.79  E(vib)   ...       0.00
freq.    3121.63  E(vib)   ...       0.00
freq.    3124.11  E(vib)   ...       0.00
freq.    3126.17  E(vib)   ...       0.00
freq.    3131.04  E(vib)   ...       0.00
freq.    3134.73  E(vib)   ...       0.00

Rotational constants in cm-1:     0.011074     0.007240     0.005035

                             ****ORCA TERMINATED NORMALLY****
TOTAL RUN TIME: 0 days 2 hours 37 minutes 16 seconds 971 msec
