                         Program Version 6.0.1  -  RELEASE   -
|  1> ! wB97X-3c OPT FREQ TightSCF
|  2> %pal
|  3>   nprocs 40
|  4> end
|  5> * xyz 0 1
|  6> C     -1.795705    -2.910094     1.132471
|  7> C     -1.833596    -1.622631     0.345056
|  8> C     -2.629626    -0.630184     0.820519
|  9> C     -2.885384     0.726599     0.202165
| 10> C     -2.232674     1.865358     1.023234
| 11> C     -1.167693     2.591444     0.226361
| 12> C     -1.288927     3.896286    -0.033992
| 13> C     -0.055859     1.837539    -0.385353
| 14> C      0.429107     0.723735     0.170351
| 15> C      1.249342    -0.256990    -0.626844
| 16> C      0.524483    -1.629736    -0.640906
| 17> C     -0.999344    -1.551126    -0.930253
| 18> C      2.690862    -0.355382    -0.043337
| 19> C      3.550159    -1.382791    -0.800741
| 20> C      3.399815     1.010890    -0.075798
| 21> H     -1.368819    -2.721678     2.140358
| 22> H     -2.823250    -3.317894     1.241306
| 23> H     -1.175563    -3.678951     0.624874
| 24> H     -3.152272    -0.805647     1.758466
| 25> H     -3.986400     0.878520     0.215403
| 26> H     -2.614618     0.776280    -0.869521
| 27> H     -1.784140     1.484917     1.966484
| 28> H     -3.030093     2.574034     1.340395
| 29> H     -0.555015     4.413175    -0.640564
| 30> H     -2.117633     4.472419     0.357902
| 31> H      0.296223     2.146912    -1.363031
| 32> H      0.141441     0.441460     1.175504
| 33> H      1.326358     0.086090    -1.684460
| 34> H      0.980234    -2.250762    -1.442361
| 35> H      0.714363    -2.159825     0.317838
| 36> H     -1.222211    -0.673135    -1.563610
| 37> H     -1.282055    -2.428708    -1.551508
| 38> H      2.629392    -0.681279     1.019385
| 39> H      3.554342    -1.163057    -1.889946
| 40> H      4.597093    -1.363310    -0.429251
| 41> H      3.169199    -2.411896    -0.636220
| 42> H      4.433386     0.920871     0.321658
| 43> H      2.866276     1.747798     0.560283
| 44> H      3.448801     1.400748    -1.115252
| 45> *
| 46>
| 47>                          ****END OF INPUT****
 Total Charge           Charge          ....    0
 Multiplicity           Mult            ....    1
 Number of Electrons    NEL             ....   84
Dispersion correction           -0.050393848
FINAL SINGLE POINT ENERGY       -99.880716749595
Dispersion correction             ... done (  0.1 sec)
Dispersion correction           -0.051166958
FINAL SINGLE POINT ENERGY       -99.892429536184
Dispersion correction             ... done (  0.1 sec)
Dispersion correction           -0.051325684
FINAL SINGLE POINT ENERGY       -99.893738839681
Dispersion correction             ... done (  0.1 sec)
FINAL SINGLE POINT ENERGY       -99.893998074147
FINAL SINGLE POINT ENERGY       -99.894126634490
FINAL SINGLE POINT ENERGY       -99.894439784438
FINAL SINGLE POINT ENERGY       -99.894842831448
FINAL SINGLE POINT ENERGY       -99.895322391366
FINAL SINGLE POINT ENERGY       -99.895924854423
FINAL SINGLE POINT ENERGY       -99.896147174923
FINAL SINGLE POINT ENERGY       -99.896391998164
FINAL SINGLE POINT ENERGY       -99.896454854922
FINAL SINGLE POINT ENERGY       -99.896495838886
FINAL SINGLE POINT ENERGY       -99.896511860822
FINAL SINGLE POINT ENERGY       -99.896522785995
Dispersion correction             ... done (  0.1 sec)
Dispersion correction           -0.051201059
FINAL SINGLE POINT ENERGY       -99.896527902711
Dispersion correction             ... done (  0.1 sec)
Dispersion correction           -0.051203505
FINAL SINGLE POINT ENERGY       -99.896530298890
Dispersion correction             ... done (  0.1 sec)
                    ***********************HURRAY********************

CARTESIAN COORDINATES (ANGSTROEM)
---------------------------------
  C     -1.726074   -2.922179    1.075770
  C     -1.796326   -1.614258    0.341695
  C     -2.563862   -0.635368    0.817975
  C     -2.829275    0.725084    0.254069
  C     -2.163932    1.882112    1.038144
  C     -1.187244    2.640932    0.184528
  C     -1.359454    3.924770   -0.115068
  C     -0.100623    1.857183   -0.418925
  C      0.356104    0.715522    0.076724
  C      1.243697   -0.242256   -0.642840
  C      0.538454   -1.608840   -0.715822
  C     -0.984881   -1.568297   -0.930047
  C      2.633229   -0.354755    0.000848
  C      3.503397   -1.390768   -0.693846
  C      3.341036    0.989966    0.018490
  H     -0.704971   -3.181666    1.354428
  H     -2.324873   -2.902729    1.983561
  H     -2.094683   -3.732841    0.444471
  H     -3.077378   -0.835811    1.754996
  H     -3.909162    0.881925    0.258581
  H     -2.526737    0.776621   -0.788861
  H     -1.657056    1.485910    1.919636
  H     -2.918311    2.574575    1.408433
  H     -0.673051    4.445127   -0.770932
  H     -2.185753    4.493993    0.289583
  H      0.282990    2.212008   -1.370762
  H     -0.010373    0.372210    1.037170
  H      1.380442    0.129666   -1.664473
  H      0.990876   -2.184759   -1.522154
  H      0.759177   -2.158493    0.201536
  H     -1.247281   -0.701057   -1.532521
  H     -1.265811   -2.444993   -1.518714
  H      2.484217   -0.675230    1.038418
  H      3.616290   -1.151312   -1.753318
  H      4.500288   -1.409039   -0.253958
  H      3.094596   -2.396363   -0.619430
  H      4.309977    0.911043    0.511002
  H      2.756789    1.746833    0.537807
  H      3.515547    1.345530   -0.999128

 Multiplicity           Mult            ....    1
 Number of Electrons    NEL             ....   84
 Basis Dimension        Dim             ....  315

ORBITAL ENERGIES
----------------

  NO   OCC          E(Eh)            E(eV)
   0   2.0000      -0.989157       -26.9163
   1   2.0000      -0.961936       -26.1756
   2   2.0000      -0.953375       -25.9427
   3   2.0000      -0.909641       -24.7526
   4   2.0000      -0.877859       -23.8878
   5   2.0000      -0.871639       -23.7185
   6   2.0000      -0.816629       -22.2216
   7   2.0000      -0.814249       -22.1568
   8   2.0000      -0.807766       -21.9804
   9   2.0000      -0.749332       -20.3904
  10   2.0000      -0.733414       -19.9572
  11   2.0000      -0.709046       -19.2941
  12   2.0000      -0.680612       -18.5204
  13   2.0000      -0.649205       -17.6658
  14   2.0000      -0.632783       -17.2189
  15   2.0000      -0.595114       -16.1939
  16   2.0000      -0.592218       -16.1151
  17   2.0000      -0.587931       -15.9984
  18   2.0000      -0.563750       -15.3404
  19   2.0000      -0.559619       -15.2280
  20   2.0000      -0.546391       -14.8681
  21   2.0000      -0.540669       -14.7123
  22   2.0000      -0.532227       -14.4826
  23   2.0000      -0.522156       -14.2086
  24   2.0000      -0.508230       -13.8296
  25   2.0000      -0.496869       -13.5205
  26   2.0000      -0.494560       -13.4577
  27   2.0000      -0.492772       -13.4090
  28   2.0000      -0.486672       -13.2430
  29   2.0000      -0.477446       -12.9920
  30   2.0000      -0.468721       -12.7546
  31   2.0000      -0.453435       -12.3386
  32   2.0000      -0.451696       -12.2913
  33   2.0000      -0.445026       -12.1098
  34   2.0000      -0.437840       -11.9142
  35   2.0000      -0.429402       -11.6846
  36   2.0000      -0.424595       -11.5538
  37   2.0000      -0.412815       -11.2333
  38   2.0000      -0.409607       -11.1460
  39   2.0000      -0.392580       -10.6826
  40   2.0000      -0.338427        -9.2091
  41   2.0000      -0.311734        -8.4827
  42   0.0000       0.059194         1.6108
  43   0.0000       0.084695         2.3047
  44   0.0000       0.085692         2.3318
  45   0.0000       0.094026         2.5586
  46   0.0000       0.098683         2.6853

MULLIKEN ATOMIC CHARGES
-----------------------
   0 C :   -0.037929
   1 C :   -0.069766
   2 C :   -0.015306
   3 C :   -0.057834
   4 C :   -0.047955
   5 C :   -0.089690
   6 C :   -0.023807
   7 C :   -0.003333
   8 C :    0.004178
   9 C :   -0.084643
  10 C :   -0.032428
  11 C :   -0.037704
  12 C :   -0.097740
  13 C :   -0.038736
  14 C :   -0.033783
  15 H :    0.028580
  16 H :    0.025627
  17 H :    0.036360
  18 H :    0.012047
  19 H :    0.041982
  20 H :    0.034474
  21 H :    0.041958
  22 H :    0.025840
  23 H :    0.021943
  24 H :    0.022874
  25 H :    0.015685
  26 H :    0.019248
  27 H :    0.022699
  28 H :    0.041843
  29 H :    0.009482
  30 H :    0.029637
  31 H :    0.034394
  32 H :    0.032214
  33 H :    0.024382
  34 H :    0.028302
  35 H :    0.023324
  36 H :    0.025997
  37 H :    0.046245
  38 H :    0.021337
Sum of atomic charges:   -0.0000000

LOEWDIN ATOMIC CHARGES
----------------------
   0 C :   -0.107163
   1 C :   -0.046179
   2 C :   -0.056997
   3 C :   -0.076720
   4 C :   -0.066142
   5 C :   -0.054926
   6 C :   -0.074083
   7 C :   -0.045424
   8 C :   -0.014993
   9 C :   -0.068875
  10 C :   -0.063622
  11 C :   -0.071722
  12 C :   -0.076874
  13 C :   -0.108156
  14 C :   -0.106338
  15 H :    0.040926
  16 H :    0.048712
  17 H :    0.048229
  18 H :    0.036620
  19 H :    0.049104
  20 H :    0.044410
  21 H :    0.045811
  22 H :    0.048119
  23 H :    0.033849
  24 H :    0.032491
  25 H :    0.041638
  26 H :    0.040168
  27 H :    0.046885
  28 H :    0.044908
  29 H :    0.038727
  30 H :    0.045264
  31 H :    0.049766
  32 H :    0.043895
  33 H :    0.043156
  34 H :    0.045213
  35 H :    0.041022
  36 H :    0.043034
  37 H :    0.044486
  38 H :    0.041781

  Mayer bond orders larger than 0.100000
B(  0-C ,  1-C ) :   1.0303 B(  0-C , 15-H ) :   0.9787 B(  0-C , 16-H ) :   0.9915
B(  0-C , 17-H ) :   0.9801 B(  1-C ,  2-C ) :   1.9050 B(  1-C , 11-C ) :   1.0179
B(  2-C ,  3-C ) :   1.0170 B(  2-C , 18-H ) :   0.9899 B(  3-C ,  4-C ) :   0.9565
B(  3-C , 19-H ) :   0.9912 B(  3-C , 20-H ) :   0.9914 B(  4-C ,  5-C ) :   1.0307
B(  4-C , 21-H ) :   0.9792 B(  4-C , 22-H ) :   0.9986 B(  5-C ,  6-C ) :   1.8817
B(  5-C ,  7-C ) :   1.1304 B(  6-C , 23-H ) :   0.9867 B(  6-C , 24-H ) :   0.9867
B(  7-C ,  8-C ) :   1.8519 B(  7-C , 25-H ) :   0.9835 B(  8-C ,  9-C ) :   1.0344
B(  8-C , 26-H ) :   0.9882 B(  9-C , 10-C ) :   0.9802 B(  9-C , 12-C ) :   0.9780
B(  9-C , 27-H ) :   0.9918 B( 10-C , 11-C ) :   0.9864 B( 10-C , 28-H ) :   0.9981
B( 10-C , 29-H ) :   0.9907 B( 11-C , 30-H ) :   0.9879 B( 11-C , 31-H ) :   0.9872
B( 12-C , 13-C ) :   0.9978 B( 12-C , 14-C ) :   1.0061 B( 12-C , 32-H ) :   0.9908
B( 13-C , 33-H ) :   0.9897 B( 13-C , 34-H ) :   0.9949 B( 13-C , 35-H ) :   0.9951
B( 14-C , 36-H ) :   0.9941 B( 14-C , 37-H ) :   0.9898 B( 14-C , 38-H ) :   0.9899

Dispersion correction           -0.051202754
FINAL SINGLE POINT ENERGY       -99.896530755800

DIPOLE MOMENT
-------------

Method             : SCF
Type of density    : Electron Density
Multiplicity       :   1
Irrep              :   0
Energy             :   -99.8453280017648410 Eh
Relativity type    :
Basis              : AO
                                X                 Y                 Z
Electronic contribution:     -8.865027079       6.553808157       0.528462665
Nuclear contribution   :      8.908172140      -6.902797305      -0.576993305
                        -----------------------------------------
Total Dipole Moment    :      0.043145060      -0.348989148      -0.048530640
                        -----------------------------------------
Magnitude (a.u.)       :      0.354979076
Magnitude (Debye)      :      0.902285106

VIBRATIONAL FREQUENCIES
-----------------------

Scaling factor for frequencies =  1.000000000  (already applied!)

     0:       0.00 cm**-1
     1:       0.00 cm**-1
     2:       0.00 cm**-1
     3:       0.00 cm**-1
     4:       0.00 cm**-1
     5:       0.00 cm**-1
     6:      41.87 cm**-1
     7:      67.57 cm**-1
     8:      80.03 cm**-1
     9:      98.27 cm**-1
    10:     143.47 cm**-1
    11:     149.82 cm**-1
    12:     158.05 cm**-1
    13:     184.23 cm**-1
    14:     226.01 cm**-1
    15:     229.29 cm**-1
    16:     249.62 cm**-1
    17:     269.96 cm**-1
    18:     283.27 cm**-1
    19:     304.63 cm**-1
    20:     340.19 cm**-1
    21:     341.46 cm**-1
    22:     367.52 cm**-1
    23:     380.41 cm**-1
    24:     424.39 cm**-1
    25:     445.36 cm**-1
    26:     453.60 cm**-1
    27:     459.83 cm**-1
    28:     513.08 cm**-1
    29:     533.29 cm**-1
    30:     570.72 cm**-1
    31:     612.17 cm**-1
    32:     652.09 cm**-1
    33:     734.52 cm**-1
    34:     750.92 cm**-1
    35:     813.60 cm**-1
    36:     856.04 cm**-1
    37:     875.98 cm**-1
    38:     891.17 cm**-1
    39:     903.08 cm**-1
    40:     927.77 cm**-1
    41:     939.67 cm**-1
    42:     952.54 cm**-1
    43:     966.13 cm**-1
    44:     982.14 cm**-1
    45:     993.46 cm**-1
    46:    1007.65 cm**-1
    47:    1024.12 cm**-1
    48:    1027.00 cm**-1
    49:    1038.45 cm**-1
    50:    1053.83 cm**-1
    51:    1070.43 cm**-1
    52:    1088.61 cm**-1
    53:    1091.46 cm**-1
    54:    1133.69 cm**-1
    55:    1154.45 cm**-1
    56:    1175.92 cm**-1
    57:    1199.91 cm**-1
    58:    1214.25 cm**-1
    59:    1223.84 cm**-1
    60:    1238.29 cm**-1
    61:    1248.41 cm**-1
    62:    1275.89 cm**-1
    63:    1295.65 cm**-1
    64:    1309.19 cm**-1
    65:    1340.50 cm**-1
    66:    1348.82 cm**-1
    67:    1364.54 cm**-1
    68:    1373.61 cm**-1
    69:    1379.02 cm**-1
    70:    1383.16 cm**-1
    71:    1394.97 cm**-1
    72:    1407.72 cm**-1
    73:    1411.15 cm**-1
    74:    1426.34 cm**-1
    75:    1438.97 cm**-1
    76:    1441.34 cm**-1
    77:    1452.10 cm**-1
    78:    1453.31 cm**-1
    79:    1475.61 cm**-1
    80:    1505.12 cm**-1
    81:    1513.01 cm**-1
    82:    1516.66 cm**-1
    83:    1518.44 cm**-1
    84:    1523.12 cm**-1
    85:    1525.57 cm**-1
    86:    1528.68 cm**-1
    87:    1533.18 cm**-1
    88:    1535.96 cm**-1
    89:    1544.34 cm**-1
    90:    1741.35 cm**-1
    91:    1793.84 cm**-1
    92:    1798.83 cm**-1
    93:    3064.64 cm**-1
    94:    3076.70 cm**-1
    95:    3093.11 cm**-1
    96:    3096.34 cm**-1
    97:    3096.80 cm**-1
    98:    3097.56 cm**-1
    99:    3109.52 cm**-1
   100:    3111.29 cm**-1
   101:    3116.62 cm**-1
   102:    3163.47 cm**-1
   103:    3169.49 cm**-1
   104:    3176.06 cm**-1
   105:    3176.41 cm**-1
   106:    3177.11 cm**-1
   107:    3180.35 cm**-1
   108:    3182.70 cm**-1
   109:    3195.39 cm**-1
   110:    3199.96 cm**-1
   111:    3204.14 cm**-1
   112:    3205.70 cm**-1
   113:    3207.02 cm**-1
   114:    3208.58 cm**-1
   115:    3230.49 cm**-1
   116:    3304.01 cm**-1

IR SPECTRUM
-----------

 Mode   freq       eps      Int      T**2         TX        TY        TZ
       cm**-1   L/(mol*cm) km/mol    a.u.
----------------------------------------------------------------------------
  6:     41.87   0.000002    0.01  0.000018  ( 0.002979  0.002012 -0.002266)
  7:     67.57   0.000007    0.03  0.000031  ( 0.002208  0.004390  0.002521)
  8:     80.03   0.000020    0.10  0.000076  (-0.004580 -0.005911 -0.004518)
  9:     98.27   0.000005    0.02  0.000014  (-0.002204  0.000962 -0.002944)
 10:    143.47   0.000094    0.47  0.000203  ( 0.012883  0.004468  0.004192)
 11:    149.82   0.000081    0.41  0.000169  (-0.005114 -0.007246 -0.009485)
 12:    158.05   0.000064    0.33  0.000127  (-0.011194  0.001391  0.000005)
 13:    184.23   0.000004    0.02  0.000007  (-0.000544  0.000090  0.002517)
 14:    226.01   0.000038    0.19  0.000052  ( 0.005947  0.001773  0.003695)
 15:    229.29   0.000071    0.36  0.000097  (-0.009286  0.000617 -0.003206)
 16:    249.62   0.000025    0.13  0.000031  ( 0.005247  0.000313  0.001838)
 17:    269.96   0.000023    0.12  0.000027  ( 0.004359  0.002153  0.001743)
 18:    283.27   0.000013    0.07  0.000015  ( 0.003023 -0.001507  0.001807)
 19:    304.63   0.000115    0.58  0.000118  ( 0.008102  0.003698  0.006188)
 20:    340.19   0.000183    0.93  0.000168  (-0.010097 -0.004297 -0.006915)
 21:    341.46   0.000065    0.33  0.000059  (-0.007680 -0.000494 -0.000386)
 22:    367.52   0.000090    0.46  0.000077  ( 0.008661  0.000211  0.001309)
 23:    380.41   0.000030    0.15  0.000025  (-0.001099  0.000226  0.004844)
 24:    424.39   0.000298    1.51  0.000219  (-0.001693  0.013547  0.005742)
 25:    445.36   0.000115    0.58  0.000081  (-0.006178 -0.001608  0.006333)
 26:    453.60   0.000256    1.29  0.000176  ( 0.011289  0.002841  0.006355)
 27:    459.83   0.000210    1.06  0.000142  ( 0.009215  0.001015  0.007517)
 28:    513.08   0.000436    2.20  0.000265  ( 0.016255  0.000819  0.000470)
 29:    533.29   0.000112    0.56  0.000065  (-0.004553  0.001825  0.006420)
 30:    570.72   0.000497    2.51  0.000272  ( 0.013714 -0.007189  0.005663)
 31:    612.17   0.000920    4.65  0.000469  (-0.015506 -0.013578 -0.006654)
 32:    652.09   0.000935    4.72  0.000447  ( 0.003084 -0.009772 -0.018499)
 33:    734.52   0.000200    1.01  0.000085  (-0.006242  0.006750 -0.000538)
 34:    750.92   0.000147    0.75  0.000061  ( 0.007603 -0.001629 -0.000906)
 35:    813.60   0.000979    4.95  0.000375  ( 0.011013 -0.015033 -0.005306)
 36:    856.04   0.000344    1.74  0.000125  ( 0.008203  0.006287 -0.004296)
 37:    875.98   0.000736    3.72  0.000262  ( 0.008504  0.012864  0.004941)
 38:    891.17   0.002171   10.97  0.000760  (-0.026479 -0.005818 -0.005019)
 39:    903.08   0.002345   11.85  0.000810  (-0.007877 -0.012649 -0.024251)
 40:    927.77   0.001145    5.79  0.000385  ( 0.013500 -0.001089  0.014203)
 41:    939.67   0.005388   27.23  0.001789  ( 0.023383  0.014079  0.032315)
 42:    952.54   0.000276    1.39  0.000090  ( 0.002811 -0.008984 -0.001299)
 43:    966.13   0.000582    2.94  0.000188  (-0.008062  0.008706  0.006864)
 44:    982.14   0.001486    7.51  0.000472  ( 0.017516  0.002748  0.012566)
 45:    993.46   0.000101    0.51  0.000032  (-0.001048 -0.004148 -0.003662)
 46:   1007.65   0.000205    1.03  0.000063  (-0.005244 -0.001641 -0.005757)
 47:   1024.12   0.000707    3.57  0.000216  ( 0.010270  0.009853 -0.003597)
 48:   1027.00   0.005841   29.52  0.001775  (-0.037048 -0.014111 -0.014255)
 49:   1038.45   0.003712   18.76  0.001115  (-0.026656 -0.009534 -0.017718)
 50:   1053.83   0.000091    0.46  0.000027  (-0.004272 -0.001847  0.002302)
 51:   1070.43   0.000620    3.13  0.000181  ( 0.009327 -0.007697 -0.005870)
 52:   1088.61   0.000073    0.37  0.000021  (-0.000779 -0.003802  0.002415)
 53:   1091.46   0.000666    3.37  0.000190  ( 0.012102  0.003353  0.005725)
 54:   1133.69   0.000487    2.46  0.000134  (-0.005884  0.009165  0.003923)
 55:   1154.45   0.000161    0.81  0.000043  (-0.002949 -0.003791  0.004515)
 56:   1175.92   0.001160    5.86  0.000308  (-0.011418  0.012817  0.003647)
 57:   1199.91   0.000027    0.13  0.000007  ( 0.001253 -0.001575 -0.001690)
 58:   1214.25   0.000282    1.42  0.000072  (-0.002257 -0.007823  0.002480)
 59:   1223.84   0.001650    8.34  0.000421  (-0.018490  0.008140 -0.003556)
 60:   1238.29   0.000189    0.95  0.000048  (-0.003960 -0.005288  0.001968)
 61:   1248.41   0.000211    1.07  0.000053  (-0.002907 -0.000667 -0.006617)
 62:   1275.89   0.000036    0.18  0.000009  (-0.000285  0.002934 -0.000371)
 63:   1295.65   0.000536    2.71  0.000129  ( 0.010942  0.002755 -0.001376)
 64:   1309.19   0.000643    3.25  0.000153  (-0.007125  0.009419 -0.003720)
 65:   1340.50   0.000021    0.11  0.000005  ( 0.001639 -0.000877  0.001212)
 66:   1348.82   0.000361    1.82  0.000083  (-0.000792 -0.008824  0.002230)
 67:   1364.54   0.000375    1.89  0.000086  (-0.003448  0.000641 -0.008566)
 68:   1373.61   0.000301    1.52  0.000068  ( 0.006715  0.000547 -0.004793)
 69:   1379.02   0.000114    0.58  0.000026  (-0.000077  0.003421  0.003757)
 70:   1383.16   0.000492    2.49  0.000111  (-0.008883  0.005393 -0.001761)
 71:   1394.97   0.000614    3.10  0.000137  (-0.008619  0.007898  0.000849)
 72:   1407.72   0.000333    1.68  0.000074  (-0.007588 -0.000582  0.003981)
 73:   1411.15   0.000626    3.16  0.000138  ( 0.004526  0.003875 -0.010145)
 74:   1426.34   0.000589    2.97  0.000129  (-0.002583 -0.010970  0.001332)
 75:   1438.97   0.000608    3.07  0.000132  ( 0.007226 -0.008924 -0.000191)
 76:   1441.34   0.001277    6.46  0.000277  ( 0.000975  0.013661  0.009433)
 77:   1452.10   0.003300   16.68  0.000709  ( 0.016564  0.012798 -0.016462)
 78:   1453.31   0.001330    6.72  0.000286  (-0.016318  0.002392  0.003691)
 79:   1475.61   0.000435    2.20  0.000092  ( 0.001306 -0.008068  0.005011)
 80:   1505.12   0.000546    2.76  0.000113  (-0.010014 -0.002284  0.002781)
 81:   1513.01   0.000794    4.01  0.000164  (-0.000532  0.011411  0.005777)
 82:   1516.66   0.000196    0.99  0.000040  (-0.001555  0.005977 -0.001480)
 83:   1518.44   0.000364    1.84  0.000075  ( 0.000837 -0.001766  0.008430)
 84:   1523.12   0.001597    8.07  0.000327  (-0.002172  0.003086  0.017688)
 85:   1525.57   0.000827    4.18  0.000169  (-0.005559  0.000094 -0.011754)
 86:   1528.68   0.002435   12.31  0.000497  ( 0.020560 -0.008623  0.000234)
 87:   1533.18   0.005702   28.82  0.001161  (-0.009240 -0.007688 -0.031878)
 88:   1535.96   0.001633    8.25  0.000332  (-0.016637 -0.007418  0.000129)
 89:   1544.34   0.002612   13.20  0.000528  ( 0.012558 -0.006098  0.018244)
 90:   1741.35   0.005026   25.40  0.000901  ( 0.004011 -0.028825  0.007328)
 91:   1793.84   0.000905    4.57  0.000157  ( 0.006417 -0.010656 -0.001628)
 92:   1798.83   0.003448   17.43  0.000598  ( 0.002788 -0.024267  0.001265)
 93:   3064.64   0.000327    1.65  0.000033  (-0.000497 -0.003414  0.004624)
 94:   3076.70   0.006895   34.84  0.000699  ( 0.006445  0.006036 -0.024926)
 95:   3093.11   0.005123   25.89  0.000517  (-0.000051  0.021608  0.007069)
 96:   3096.34   0.004008   20.25  0.000404  ( 0.000131  0.002412  0.019952)
 97:   3096.80   0.007980   40.33  0.000804  ( 0.028245  0.001778 -0.001786)
 98:   3097.56   0.003878   19.60  0.000391  (-0.005930 -0.017917  0.005874)
 99:   3109.52   0.012422   62.77  0.001247  ( 0.011997 -0.033169 -0.001586)
100:   3111.29   0.005215   26.36  0.000523  ( 0.008142  0.004406  0.020914)
101:   3116.62   0.003211   16.23  0.000322  (-0.017259  0.001963  0.004450)
102:   3163.47   0.004728   23.89  0.000466  ( 0.011139 -0.005886 -0.017541)
103:   3169.49   0.003668   18.53  0.000361  (-0.015677  0.010556  0.001977)
104:   3176.06   0.002193   11.08  0.000215  ( 0.006564  0.011121  0.006979)
105:   3176.41   0.000129    0.65  0.000013  ( 0.000981 -0.003166 -0.001296)
106:   3177.11   0.003943   19.93  0.000387  ( 0.007821 -0.011846  0.013632)
107:   3180.35   0.009290   46.95  0.000912  ( 0.016077 -0.006502  0.024714)
108:   3182.70   0.000392    1.98  0.000038  ( 0.005736 -0.002162 -0.000928)
109:   3195.39   0.005306   26.81  0.000518  (-0.009537 -0.007361  0.019314)
110:   3199.96   0.003760   19.00  0.000367  (-0.010765 -0.015815  0.000793)
111:   3204.14   0.003011   15.21  0.000293  (-0.014176  0.007772  0.005643)
112:   3205.70   0.001379    6.97  0.000134  ( 0.007223 -0.006002 -0.006786)
113:   3207.02   0.004242   21.44  0.000413  (-0.014455  0.001179  0.014228)
114:   3208.58   0.001887    9.53  0.000183  ( 0.004592  0.009786 -0.008163)
115:   3230.49   0.001377    6.96  0.000133  (-0.003452 -0.001023  0.010955)
116:   3304.01   0.000978    4.94  0.000092  (-0.007794 -0.000268  0.005618)

--------------------------
THERMOCHEMISTRY AT 298.15K
--------------------------

Temperature         ...   298.15 K
Pressure            ...     1.00 atm
Total Mass          ...   204.36 AMU
Quasi RRHO          ...     True
Cut-Off Frequency   ...     1.00 cm^-1

Throughout the following assumptions are being made:
  (1) The electronic state is orbitally nondegenerate
  (2) There are no thermally accessible electronically excited states
  (3) Hindered rotations indicated by low frequency modes are not
      treated as such but are treated as vibrations and this may
      cause some error
  (4) All equations used are the standard statistical mechanics
      equations for an ideal gas
  (5) All vibrations are strictly harmonic

freq.      41.87  E(vib)   ...       0.53
freq.      67.57  E(vib)   ...       0.50
freq.      80.03  E(vib)   ...       0.49
freq.      98.27  E(vib)   ...       0.46
freq.     143.47  E(vib)   ...       0.41
freq.     149.82  E(vib)   ...       0.40
freq.     158.05  E(vib)   ...       0.40
freq.     184.23  E(vib)   ...       0.37
freq.     226.01  E(vib)   ...       0.33
freq.     229.29  E(vib)   ...       0.32
freq.     249.62  E(vib)   ...       0.31
freq.     269.96  E(vib)   ...       0.29
freq.     283.27  E(vib)   ...       0.28
freq.     304.63  E(vib)   ...       0.26
freq.     340.19  E(vib)   ...       0.23
freq.     341.46  E(vib)   ...       0.23
freq.     367.52  E(vib)   ...       0.21
freq.     380.41  E(vib)   ...       0.21
freq.     424.39  E(vib)   ...       0.18
freq.     445.36  E(vib)   ...       0.17
freq.     453.60  E(vib)   ...       0.16
freq.     459.83  E(vib)   ...       0.16
freq.     513.08  E(vib)   ...       0.13
freq.     533.29  E(vib)   ...       0.13
freq.     570.72  E(vib)   ...       0.11
freq.     612.17  E(vib)   ...       0.10
freq.     652.09  E(vib)   ...       0.08
freq.     734.52  E(vib)   ...       0.06
freq.     750.92  E(vib)   ...       0.06
freq.     813.60  E(vib)   ...       0.05
freq.     856.04  E(vib)   ...       0.04
freq.     875.98  E(vib)   ...       0.04
freq.     891.17  E(vib)   ...       0.04
freq.     903.08  E(vib)   ...       0.03
freq.     927.77  E(vib)   ...       0.03
freq.     939.67  E(vib)   ...       0.03
freq.     952.54  E(vib)   ...       0.03
freq.     966.13  E(vib)   ...       0.03
freq.     982.14  E(vib)   ...       0.02
freq.     993.46  E(vib)   ...       0.02
freq.    1007.65  E(vib)   ...       0.02
freq.    1024.12  E(vib)   ...       0.02
freq.    1027.00  E(vib)   ...       0.02
freq.    1038.45  E(vib)   ...       0.02
freq.    1053.83  E(vib)   ...       0.02
freq.    1070.43  E(vib)   ...       0.02
freq.    1088.61  E(vib)   ...       0.02
freq.    1091.46  E(vib)   ...       0.02
freq.    1133.69  E(vib)   ...       0.01
freq.    1154.45  E(vib)   ...       0.01
freq.    1175.92  E(vib)   ...       0.01
freq.    1199.91  E(vib)   ...       0.01
freq.    1214.25  E(vib)   ...       0.01
freq.    1223.84  E(vib)   ...       0.01
freq.    1238.29  E(vib)   ...       0.01
freq.    1248.41  E(vib)   ...       0.01
freq.    1275.89  E(vib)   ...       0.01
freq.    1295.65  E(vib)   ...       0.01
freq.    1309.19  E(vib)   ...       0.01
freq.    1340.50  E(vib)   ...       0.01
freq.    1348.82  E(vib)   ...       0.01
freq.    1364.54  E(vib)   ...       0.01
freq.    1373.61  E(vib)   ...       0.01
freq.    1379.02  E(vib)   ...       0.01
freq.    1383.16  E(vib)   ...       0.00
freq.    1394.97  E(vib)   ...       0.00
freq.    1407.72  E(vib)   ...       0.00
freq.    1411.15  E(vib)   ...       0.00
freq.    1426.34  E(vib)   ...       0.00
freq.    1438.97  E(vib)   ...       0.00
freq.    1441.34  E(vib)   ...       0.00
freq.    1452.10  E(vib)   ...       0.00
freq.    1453.31  E(vib)   ...       0.00
freq.    1475.61  E(vib)   ...       0.00
freq.    1505.12  E(vib)   ...       0.00
freq.    1513.01  E(vib)   ...       0.00
freq.    1516.66  E(vib)   ...       0.00
freq.    1518.44  E(vib)   ...       0.00
freq.    1523.12  E(vib)   ...       0.00
freq.    1525.57  E(vib)   ...       0.00
freq.    1528.68  E(vib)   ...       0.00
freq.    1533.18  E(vib)   ...       0.00
freq.    1535.96  E(vib)   ...       0.00
freq.    1544.34  E(vib)   ...       0.00
freq.    1741.35  E(vib)   ...       0.00
freq.    1793.84  E(vib)   ...       0.00
freq.    1798.83  E(vib)   ...       0.00
freq.    3064.64  E(vib)   ...       0.00
freq.    3076.70  E(vib)   ...       0.00
freq.    3093.11  E(vib)   ...       0.00
freq.    3096.34  E(vib)   ...       0.00
freq.    3096.80  E(vib)   ...       0.00
freq.    3097.56  E(vib)   ...       0.00
freq.    3109.52  E(vib)   ...       0.00
freq.    3111.29  E(vib)   ...       0.00
freq.    3116.62  E(vib)   ...       0.00
freq.    3163.47  E(vib)   ...       0.00
freq.    3169.49  E(vib)   ...       0.00
freq.    3176.06  E(vib)   ...       0.00
freq.    3176.41  E(vib)   ...       0.00
freq.    3177.11  E(vib)   ...       0.00
freq.    3180.35  E(vib)   ...       0.00
freq.    3182.70  E(vib)   ...       0.00
freq.    3195.39  E(vib)   ...       0.00
freq.    3199.96  E(vib)   ...       0.00
freq.    3204.14  E(vib)   ...       0.00
freq.    3205.70  E(vib)   ...       0.00
freq.    3207.02  E(vib)   ...       0.00
freq.    3208.58  E(vib)   ...       0.00
freq.    3230.49  E(vib)   ...       0.00
freq.    3304.01  E(vib)   ...       0.00

------------
INNER ENERGY
------------

The inner energy is: U= E(el) + E(ZPE) + E(vib) + E(rot) + E(trans)
    E(el)   - is the total energy from the electronic structure calculation
              = E(kin-el) + E(nuc-el) + E(el-el) + E(nuc-nuc)
    E(ZPE)  - the the zero temperature vibrational energy from the frequency calculation
    E(vib)  - the the finite temperature correction to E(ZPE) due to population
              of excited vibrational states
    E(rot)  - is the rotational thermal energy
    E(trans)- is the translational thermal energy

Summary of contributions to the inner energy U:
Electronic energy                ...    -99.89653076 Eh
Zero point energy                ...      0.36348379 Eh     228.09 kcal/mol
Thermal vibrational correction   ...      0.01321211 Eh       8.29 kcal/mol
Thermal rotational correction    ...      0.00141627 Eh       0.89 kcal/mol
Thermal translational correction ...      0.00141627 Eh       0.89 kcal/mol
-----------------------------------------------------------------------
Total thermal energy                    -99.51700231 Eh

Summary of corrections to the electronic energy:
(perhaps to be used in another calculation)
Total thermal correction                  0.01604465 Eh      10.07 kcal/mol
Non-thermal (ZPE) correction              0.36348379 Eh     228.09 kcal/mol
-----------------------------------------------------------------------
Total correction                          0.37952845 Eh     238.16 kcal/mol

Rotational constants in cm-1:     0.022273     0.016319     0.010290

                             ****ORCA TERMINATED NORMALLY****
TOTAL RUN TIME: 0 days 0 hours 35 minutes 13 seconds 749 msec
