                         Program Version 6.0.1  -  RELEASE   -
|  1> ! wB97X-3c OPT FREQ TightSCF
|  2> %pal
|  3>   nprocs 40
|  4> end
|  5> * xyz 0 1
|  6> C      3.273395    -0.908318    -0.454928
|  7> C      2.351691     0.275425    -0.130580
|  8> C      2.125248     0.465890     1.370157
|  9> C      0.742821     1.097846     1.505633
| 10> C     -0.089776     0.607606     0.299598
| 11> C      0.952231     0.286531    -0.801086
| 12> C      0.420759    -0.977886    -1.515828
| 13> C     -1.001351    -1.182447    -0.955665
| 14> C     -0.879152    -0.730095     0.518223
| 15> C     -2.250060    -0.547135     1.237612
| 16> C     -0.128793    -1.819153     1.337610
| 17> C     -2.012821    -0.293696    -1.742131
| 18> C     -1.762672     1.236540    -1.608866
| 19> C     -1.091662     1.621015    -0.291260
| 20> C     -1.504410     2.725633     0.358046
| 21> H      2.910310    -1.854448    -0.007569
| 22> H      3.363205    -1.029911    -1.555155
| 23> H      4.287298    -0.709996    -0.046820
| 24> H      2.888708     1.185810    -0.485714
| 25> H      2.168321    -0.496566     1.919067
| 26> H      2.904531     1.128994     1.806792
| 27> H      0.898733     2.196236     1.451756
| 28> H      0.267381     0.855105     2.479288
| 29> H      0.990176     1.101998    -1.560922
| 30> H      0.411480    -0.836669    -2.619055
| 31> H      1.025008    -1.882799    -1.315188
| 32> H     -1.308591    -2.248793    -1.038811
| 33> H     -2.087863    -0.214425     2.285085
| 34> H     -2.803814    -1.510387     1.258426
| 35> H     -2.918781     0.197933     0.765721
| 36> H     -0.718707    -2.761106     1.349670
| 37> H      0.008284    -1.503178     2.392915
| 38> H      0.857584    -2.077241     0.920705
| 39> H     -1.988291    -0.570983    -2.818435
| 40> H     -3.043067    -0.529714    -1.400451
| 41> H     -1.118942     1.578382    -2.446711
| 42> H     -2.738213     1.758058    -1.725259
| 43> H     -1.153552     2.983604     1.349227
| 44> H     -2.246647     3.382342    -0.085094
| 45> *
| 46>
| 47>                          ****END OF INPUT****
 Total Charge           Charge          ....    0
 Multiplicity           Mult            ....    1
 Number of Electrons    NEL             ....   84
Dispersion correction           -0.057940655
FINAL SINGLE POINT ENERGY       -99.938813535737
Dispersion correction             ... done (  0.1 sec)
Dispersion correction           -0.059143458
FINAL SINGLE POINT ENERGY       -99.951346078803
Dispersion correction             ... done (  0.1 sec)
Dispersion correction           -0.059270264
FINAL SINGLE POINT ENERGY       -99.952690371675
Dispersion correction             ... done (  0.1 sec)
FINAL SINGLE POINT ENERGY       -99.952998002750
FINAL SINGLE POINT ENERGY       -99.953060120859
Dispersion correction             ... done (  0.1 sec)
Dispersion correction           -0.059279502
FINAL SINGLE POINT ENERGY       -99.953090468347
Dispersion correction             ... done (  0.1 sec)
Dispersion correction           -0.059297200
FINAL SINGLE POINT ENERGY       -99.953093659684
Dispersion correction             ... done (  0.1 sec)
                    ***********************HURRAY********************

CARTESIAN COORDINATES (ANGSTROEM)
---------------------------------
  C      3.256117   -0.865701   -0.459489
  C      2.325387    0.281529   -0.120094
  C      2.063983    0.432504    1.380958
  C      0.703530    1.110291    1.489584
  C     -0.111834    0.612638    0.300435
  C      0.933726    0.281644   -0.803087
  C      0.399596   -0.977455   -1.507718
  C     -1.018857   -1.171368   -0.959457
  C     -0.882291   -0.733146    0.508547
  C     -2.205365   -0.562362    1.244759
  C     -0.101859   -1.794216    1.279512
  C     -2.031331   -0.298615   -1.689650
  C     -1.694997    1.190504   -1.592998
  C     -1.119637    1.594158   -0.258440
  C     -1.495251    2.714184    0.342490
  H      2.879724   -1.822571   -0.098379
  H      3.412537   -0.952907   -1.534815
  H      4.230485   -0.709000    0.004111
  H      2.821884    1.196480   -0.451389
  H      2.061826   -0.541581    1.865985
  H      2.847044    1.016084    1.866398
  H      0.841781    2.187726    1.400763
  H      0.212340    0.932222    2.446934
  H      0.948859    1.094835   -1.525821
  H      0.395805   -0.862072   -2.592332
  H      1.009545   -1.853250   -1.298449
  H     -1.335078   -2.214913   -1.030876
  H     -2.024408   -0.242140    2.271717
  H     -2.736698   -1.514102    1.288355
  H     -2.863185    0.173489    0.794864
  H     -0.685514   -2.715565    1.298482
  H      0.064141   -1.495574    2.313592
  H      0.861124   -2.030275    0.838869
  H     -2.077590   -0.591215   -2.740081
  H     -3.024297   -0.483662   -1.279849
  H     -0.958844    1.431182   -2.362820
  H     -2.572863    1.795098   -1.818725
  H     -1.090699    3.026637    1.294591
  H     -2.238836    3.360487   -0.106476

 Multiplicity           Mult            ....    1
 Number of Electrons    NEL             ....   84
 Basis Dimension        Dim             ....  315

ORBITAL ENERGIES
----------------

  NO   OCC          E(Eh)            E(eV)
   0   2.0000      -1.027569       -27.9616
   1   2.0000      -0.957538       -26.0559
   2   2.0000      -0.929605       -25.2958
   3   2.0000      -0.910967       -24.7887
   4   2.0000      -0.875206       -23.8156
   5   2.0000      -0.862759       -23.4769
   6   2.0000      -0.819255       -22.2931
   7   2.0000      -0.811023       -22.0691
   8   2.0000      -0.790138       -21.5008
   9   2.0000      -0.759381       -20.6638
  10   2.0000      -0.744524       -20.2595
  11   2.0000      -0.686600       -18.6833
  12   2.0000      -0.673252       -18.3201
  13   2.0000      -0.652677       -17.7602
  14   2.0000      -0.623763       -16.9734
  15   2.0000      -0.609356       -16.5814
  16   2.0000      -0.589017       -16.0280
  17   2.0000      -0.582413       -15.8483
  18   2.0000      -0.563204       -15.3256
  19   2.0000      -0.549866       -14.9626
  20   2.0000      -0.548064       -14.9136
  21   2.0000      -0.531491       -14.4626
  22   2.0000      -0.521987       -14.2040
  23   2.0000      -0.516800       -14.0628
  24   2.0000      -0.516342       -14.0504
  25   2.0000      -0.501640       -13.6503
  26   2.0000      -0.492727       -13.4078
  27   2.0000      -0.484040       -13.1714
  28   2.0000      -0.475903       -12.9500
  29   2.0000      -0.465276       -12.6608
  30   2.0000      -0.462970       -12.5980
  31   2.0000      -0.453834       -12.3495
  32   2.0000      -0.450516       -12.2592
  33   2.0000      -0.431688       -11.7468
  34   2.0000      -0.422833       -11.5059
  35   2.0000      -0.419754       -11.4221
  36   2.0000      -0.410485       -11.1699
  37   2.0000      -0.397984       -10.8297
  38   2.0000      -0.396294       -10.7837
  39   2.0000      -0.391620       -10.6565
  40   2.0000      -0.382054       -10.3962
  41   2.0000      -0.336390        -9.1536
  42   0.0000       0.082240         2.2379
  43   0.0000       0.092066         2.5052
  44   0.0000       0.095769         2.6060
  45   0.0000       0.101480         2.7614
  46   0.0000       0.105910         2.8820

MULLIKEN ATOMIC CHARGES
-----------------------
   0 C :   -0.045178
   1 C :   -0.064628
   2 C :   -0.012961
   3 C :    0.007910
   4 C :   -0.192882
   5 C :   -0.028638
   6 C :    0.001349
   7 C :   -0.036129
   8 C :   -0.162202
   9 C :    0.014348
  10 C :    0.011857
  11 C :   -0.027078
  12 C :   -0.038089
  13 C :   -0.036007
  14 C :   -0.021388
  15 H :    0.019097
  16 H :    0.033665
  17 H :    0.032303
  18 H :    0.027350
  19 H :    0.009812
  20 H :    0.031355
  21 H :    0.036158
  22 H :    0.028059
  23 H :    0.038142
  24 H :    0.029149
  25 H :    0.022136
  26 H :    0.030442
  27 H :    0.020712
  28 H :    0.024808
  29 H :    0.031548
  30 H :    0.027464
  31 H :    0.029748
  32 H :   -0.005855
  33 H :    0.030025
  34 H :    0.027120
  35 H :    0.038885
  36 H :    0.029805
  37 H :    0.019676
  38 H :    0.018113
Sum of atomic charges:    0.0000000

LOEWDIN ATOMIC CHARGES
----------------------
   0 C :   -0.113269
   1 C :   -0.063133
   2 C :   -0.069412
   3 C :   -0.066648
   4 C :   -0.034082
   5 C :   -0.027891
   6 C :   -0.061207
   7 C :   -0.054540
   8 C :   -0.051974
   9 C :   -0.099614
  10 C :   -0.096407
  11 C :   -0.073977
  12 C :   -0.070897
  13 C :   -0.027170
  14 C :   -0.083882
  15 H :    0.035570
  16 H :    0.045050
  17 H :    0.046571
  18 H :    0.045646
  19 H :    0.034859
  20 H :    0.041031
  21 H :    0.045727
  22 H :    0.039417
  23 H :    0.039738
  24 H :    0.040539
  25 H :    0.036378
  26 H :    0.044226
  27 H :    0.044765
  28 H :    0.044403
  29 H :    0.040070
  30 H :    0.046040
  31 H :    0.044247
  32 H :    0.034480
  33 H :    0.045330
  34 H :    0.043093
  35 H :    0.047410
  36 H :    0.050300
  37 H :    0.028654
  38 H :    0.030560

  Mayer bond orders larger than 0.100000
B(  0-C ,  1-C ) :   1.0108 B(  0-C , 15-H ) :   0.9899 B(  0-C , 16-H ) :   0.9899
B(  0-C , 17-H ) :   0.9911 B(  1-C ,  2-C ) :   0.9743 B(  1-C ,  5-C ) :   0.9991
B(  1-C , 18-H ) :   1.0018 B(  2-C ,  3-C ) :   0.9953 B(  2-C , 19-H ) :   0.9984
B(  2-C , 20-H ) :   1.0009 B(  3-C ,  4-C ) :   1.0090 B(  3-C , 21-H ) :   0.9864
B(  3-C , 22-H ) :   0.9939 B(  4-C ,  5-C ) :   0.9704 B(  4-C ,  8-C ) :   0.9460
B(  4-C , 13-C ) :   1.0688 B(  5-C ,  6-C ) :   0.9819 B(  5-C , 23-H ) :   1.0010
B(  6-C ,  7-C ) :   0.9925 B(  6-C , 24-H ) :   0.9988 B(  6-C , 25-H ) :   0.9968
B(  7-C ,  8-C ) :   0.9713 B(  7-C , 11-C ) :   1.0028 B(  7-C , 26-H ) :   1.0012
B(  8-C ,  9-C ) :   1.0259 B(  8-C , 10-C ) :   1.0215 B(  9-C , 27-H ) :   0.9877
B(  9-C , 28-H ) :   0.9873 B(  9-C , 29-H ) :   0.9845 B( 10-C , 30-H ) :   0.9879
B( 10-C , 31-H ) :   0.9897 B( 10-C , 32-H ) :   0.9929 B( 11-C , 12-C ) :   0.9765
B( 11-C , 33-H ) :   0.9981 B( 11-C , 34-H ) :   0.9972 B( 12-C , 13-C ) :   1.0110
B( 12-C , 35-H ) :   0.9800 B( 12-C , 36-H ) :   0.9955 B( 13-C , 14-C ) :   1.9580
B( 14-C , 37-H ) :   0.9782 B( 14-C , 38-H ) :   0.9762

Dispersion correction           -0.059297461
FINAL SINGLE POINT ENERGY       -99.953094560472

DIPOLE MOMENT
-------------

Method             : SCF
Type of density    : Electron Density
Multiplicity       :   1
Irrep              :   0
Energy             :   -99.8937970996163500 Eh
Relativity type    :
Basis              : AO
                                X                 Y                 Z
Electronic contribution:     -2.747174541       5.044529080      -2.556616743
Nuclear contribution   :      2.817356892      -5.221561365       2.430513928
                        -----------------------------------------
Total Dipole Moment    :      0.070182351      -0.177032285      -0.126102815
                        -----------------------------------------
Magnitude (a.u.)       :      0.228402961
Magnitude (Debye)      :      0.580554189

VIBRATIONAL FREQUENCIES
-----------------------

Scaling factor for frequencies =  1.000000000  (already applied!)

     0:       0.00 cm**-1
     1:       0.00 cm**-1
     2:       0.00 cm**-1
     3:       0.00 cm**-1
     4:       0.00 cm**-1
     5:       0.00 cm**-1
     6:      88.87 cm**-1
     7:     126.30 cm**-1
     8:     178.29 cm**-1
     9:     200.71 cm**-1
    10:     210.63 cm**-1
    11:     224.31 cm**-1
    12:     262.97 cm**-1
    13:     266.02 cm**-1
    14:     290.58 cm**-1
    15:     308.15 cm**-1
    16:     318.10 cm**-1
    17:     344.56 cm**-1
    18:     368.86 cm**-1
    19:     398.46 cm**-1
    20:     401.12 cm**-1
    21:     424.32 cm**-1
    22:     468.47 cm**-1
    23:     473.15 cm**-1
    24:     505.55 cm**-1
    25:     527.53 cm**-1
    26:     561.05 cm**-1
    27:     579.25 cm**-1
    28:     635.18 cm**-1
    29:     650.21 cm**-1
    30:     673.07 cm**-1
    31:     731.84 cm**-1
    32:     754.83 cm**-1
    33:     812.73 cm**-1
    34:     838.88 cm**-1
    35:     863.68 cm**-1
    36:     881.12 cm**-1
    37:     893.71 cm**-1
    38:     924.40 cm**-1
    39:     933.69 cm**-1
    40:     968.40 cm**-1
    41:     976.71 cm**-1
    42:     977.85 cm**-1
    43:     982.31 cm**-1
    44:     999.31 cm**-1
    45:    1015.56 cm**-1
    46:    1024.21 cm**-1
    47:    1037.15 cm**-1
    48:    1044.31 cm**-1
    49:    1049.39 cm**-1
    50:    1082.78 cm**-1
    51:    1096.44 cm**-1
    52:    1119.72 cm**-1
    53:    1139.61 cm**-1
    54:    1161.25 cm**-1
    55:    1185.00 cm**-1
    56:    1205.15 cm**-1
    57:    1211.45 cm**-1
    58:    1220.79 cm**-1
    59:    1241.41 cm**-1
    60:    1258.02 cm**-1
    61:    1268.66 cm**-1
    62:    1270.57 cm**-1
    63:    1287.20 cm**-1
    64:    1298.38 cm**-1
    65:    1332.12 cm**-1
    66:    1336.33 cm**-1
    67:    1350.32 cm**-1
    68:    1362.72 cm**-1
    69:    1367.55 cm**-1
    70:    1386.51 cm**-1
    71:    1390.48 cm**-1
    72:    1398.39 cm**-1
    73:    1409.42 cm**-1
    74:    1415.99 cm**-1
    75:    1418.61 cm**-1
    76:    1429.23 cm**-1
    77:    1438.34 cm**-1
    78:    1449.33 cm**-1
    79:    1455.30 cm**-1
    80:    1479.61 cm**-1
    81:    1510.59 cm**-1
    82:    1515.84 cm**-1
    83:    1516.98 cm**-1
    84:    1520.24 cm**-1
    85:    1524.49 cm**-1
    86:    1528.47 cm**-1
    87:    1533.86 cm**-1
    88:    1541.19 cm**-1
    89:    1546.30 cm**-1
    90:    1551.25 cm**-1
    91:    1563.77 cm**-1
    92:    1767.40 cm**-1
    93:    3089.31 cm**-1
    94:    3096.24 cm**-1
    95:    3098.18 cm**-1
    96:    3099.33 cm**-1
    97:    3104.09 cm**-1
    98:    3105.61 cm**-1
    99:    3112.02 cm**-1
   100:    3114.44 cm**-1
   101:    3121.51 cm**-1
   102:    3126.21 cm**-1
   103:    3144.23 cm**-1
   104:    3153.02 cm**-1
   105:    3163.46 cm**-1
   106:    3167.51 cm**-1
   107:    3173.73 cm**-1
   108:    3179.46 cm**-1
   109:    3180.49 cm**-1
   110:    3183.02 cm**-1
   111:    3185.05 cm**-1
   112:    3189.21 cm**-1
   113:    3210.52 cm**-1
   114:    3228.75 cm**-1
   115:    3231.27 cm**-1
   116:    3304.61 cm**-1

IR SPECTRUM
-----------

 Mode   freq       eps      Int      T**2         TX        TY        TZ
       cm**-1   L/(mol*cm) km/mol    a.u.
----------------------------------------------------------------------------
  6:     88.87   0.000009    0.04  0.000030  ( 0.005326  0.000597  0.001137)
  7:    126.30   0.000011    0.06  0.000027  ( 0.004396  0.002643 -0.000764)
  8:    178.29   0.000011    0.06  0.000019  ( 0.001402 -0.001347 -0.003927)
  9:    200.71   0.000015    0.07  0.000023  (-0.001087 -0.004181  0.002097)
 10:    210.63   0.000020    0.10  0.000030  ( 0.000337  0.003096 -0.004513)
 11:    224.31   0.000050    0.25  0.000070  ( 0.007868 -0.001373 -0.002470)
 12:    262.97   0.000007    0.03  0.000008  (-0.001993  0.001017  0.001788)
 13:    266.02   0.000011    0.06  0.000013  ( 0.003447 -0.001089 -0.000220)
 14:    290.58   0.000008    0.04  0.000009  (-0.001017 -0.001643  0.002186)
 15:    308.15   0.000033    0.16  0.000033  (-0.005705  0.000209  0.000688)
 16:    318.10   0.000018    0.09  0.000017  (-0.003022  0.002475 -0.001394)
 17:    344.56   0.000053    0.27  0.000048  ( 0.006615 -0.001465  0.001404)
 18:    368.86   0.000065    0.33  0.000055  (-0.003088 -0.004973  0.004595)
 19:    398.46   0.000019    0.10  0.000015  (-0.001675 -0.003481  0.000325)
 20:    401.12   0.000077    0.39  0.000060  ( 0.005939  0.000505 -0.004953)
 21:    424.32   0.000101    0.51  0.000074  (-0.004290 -0.006889  0.002876)
 22:    468.47   0.000124    0.63  0.000082  (-0.008769 -0.002013 -0.001226)
 23:    473.15   0.000180    0.91  0.000119  (-0.010453  0.000210  0.003082)
 24:    505.55   0.000188    0.95  0.000116  (-0.004500 -0.008320  0.005131)
 25:    527.53   0.000157    0.80  0.000093  (-0.008438 -0.000054  0.004683)
 26:    561.05   0.000194    0.98  0.000108  (-0.004287  0.009353  0.001399)
 27:    579.25   0.000055    0.28  0.000030  (-0.001730  0.003228 -0.004040)
 28:    635.18   0.000248    1.25  0.000122  ( 0.008309  0.007164  0.001242)
 29:    650.21   0.000784    3.96  0.000376  ( 0.011635  0.011841 -0.010041)
 30:    673.07   0.000113    0.57  0.000052  (-0.001267  0.006913 -0.001753)
 31:    731.84   0.000119    0.60  0.000051  (-0.006588 -0.002617 -0.000692)
 32:    754.83   0.000045    0.23  0.000019  (-0.002951 -0.002760 -0.001555)
 33:    812.73   0.000183    0.93  0.000070  (-0.005592  0.001664  0.006025)
 34:    838.88   0.000171    0.86  0.000064  ( 0.000463 -0.007841 -0.001391)
 35:    863.68   0.000245    1.24  0.000089  ( 0.008405  0.003461 -0.002437)
 36:    881.12   0.000308    1.56  0.000109  ( 0.008886  0.005283  0.001467)
 37:    893.71   0.000558    2.82  0.000195  ( 0.010535  0.007300 -0.005532)
 38:    924.40   0.000023    0.12  0.000008  ( 0.001552  0.002136  0.000907)
 39:    933.69   0.007955   40.20  0.002659  (-0.035769 -0.028213  0.024150)
 40:    968.40   0.000125    0.63  0.000040  ( 0.000015 -0.003318  0.005402)
 41:    976.71   0.000117    0.59  0.000038  (-0.002631  0.001168 -0.005409)
 42:    977.85   0.000400    2.02  0.000128  ( 0.008622 -0.007303 -0.000368)
 43:    982.31   0.000406    2.05  0.000129  (-0.006835  0.005501  0.007214)
 44:    999.31   0.000123    0.62  0.000038  ( 0.002646 -0.000087  0.005593)
 45:   1015.56   0.000046    0.23  0.000014  ( 0.003590 -0.000235 -0.001114)
 46:   1024.21   0.000176    0.89  0.000054  (-0.002235 -0.002863  0.006369)
 47:   1037.15   0.000428    2.16  0.000129  ( 0.005212 -0.000681  0.010061)
 48:   1044.31   0.000629    3.18  0.000188  ( 0.011604  0.000340  0.007286)
 49:   1049.39   0.000371    1.88  0.000110  ( 0.008772  0.005499 -0.001794)
 50:   1082.78   0.000045    0.23  0.000013  (-0.002883 -0.001212 -0.001810)
 51:   1096.44   0.000111    0.56  0.000031  ( 0.000771  0.000976  0.005468)
 52:   1119.72   0.000108    0.55  0.000030  (-0.000382 -0.005468  0.000131)
 53:   1139.61   0.000037    0.19  0.000010  (-0.001109 -0.002585  0.001485)
 54:   1161.25   0.000044    0.22  0.000012  (-0.000190 -0.001812  0.002924)
 55:   1185.00   0.000368    1.86  0.000097  (-0.003972 -0.008994 -0.000403)
 56:   1205.15   0.000701    3.54  0.000182  (-0.008640  0.004553 -0.009285)
 57:   1211.45   0.000566    2.86  0.000146  (-0.005747 -0.010010 -0.003553)
 58:   1220.79   0.000599    3.03  0.000153  ( 0.012096 -0.002321  0.001232)
 59:   1241.41   0.000208    1.05  0.000052  ( 0.000821  0.000485 -0.007169)
 60:   1258.02   0.000028    0.14  0.000007  (-0.001441 -0.002076  0.000741)
 61:   1268.66   0.000343    1.73  0.000084  ( 0.004527  0.001724 -0.007802)
 62:   1270.57   0.000284    1.43  0.000070  (-0.002585  0.007733 -0.001793)
 63:   1287.20   0.000402    2.03  0.000097  (-0.000095 -0.006821 -0.007138)
 64:   1298.38   0.000133    0.67  0.000032  ( 0.004782  0.003012  0.000126)
 65:   1332.12   0.000484    2.44  0.000113  ( 0.010045 -0.003294  0.001241)
 66:   1336.33   0.000168    0.85  0.000039  ( 0.004805  0.002915  0.002755)
 67:   1350.32   0.000025    0.12  0.000006  ( 0.000864 -0.001217  0.001854)
 68:   1362.72   0.000116    0.59  0.000027  ( 0.001730  0.000229  0.004848)
 69:   1367.55   0.000247    1.25  0.000056  ( 0.001891  0.003410 -0.006410)
 70:   1386.51   0.000199    1.01  0.000045  ( 0.002941 -0.002371  0.005532)
 71:   1390.48   0.000165    0.83  0.000037  ( 0.004418 -0.003759  0.001842)
 72:   1398.39   0.000107    0.54  0.000024  ( 0.004568 -0.001757 -0.000114)
 73:   1409.42   0.000135    0.68  0.000030  (-0.002581 -0.002888  0.003845)
 74:   1415.99   0.000332    1.68  0.000073  (-0.005080 -0.000439  0.006876)
 75:   1418.61   0.000108    0.55  0.000024  (-0.000266 -0.004769  0.001018)
 76:   1429.23   0.000847    4.28  0.000185  ( 0.009808 -0.008411 -0.004231)
 77:   1438.34   0.000300    1.51  0.000065  (-0.005763  0.004144 -0.003826)
 78:   1449.33   0.002236   11.30  0.000481  ( 0.018040 -0.010946 -0.006007)
 79:   1455.30   0.003086   15.59  0.000662  ( 0.008896  0.015169 -0.018774)
 80:   1479.61   0.000933    4.71  0.000197  ( 0.006572 -0.009468 -0.007991)
 81:   1510.59   0.000232    1.17  0.000048  (-0.002381 -0.004989  0.004166)
 82:   1515.84   0.000911    4.61  0.000188  (-0.007292  0.009825 -0.006157)
 83:   1516.98   0.001809    9.14  0.000372  ( 0.004926  0.018265 -0.003791)
 84:   1520.24   0.001659    8.38  0.000341  ( 0.016994 -0.007167  0.000630)
 85:   1524.49   0.001679    8.49  0.000344  ( 0.009336  0.009706 -0.012744)
 86:   1528.47   0.000951    4.81  0.000194  (-0.001929  0.000140 -0.013800)
 87:   1533.86   0.003347   16.92  0.000681  ( 0.016752  0.009140  0.017799)
 88:   1541.19   0.002163   10.93  0.000438  (-0.011759  0.005501 -0.016418)
 89:   1546.30   0.002239   11.32  0.000452  ( 0.006753 -0.016638 -0.011380)
 90:   1551.25   0.000176    0.89  0.000035  ( 0.000143 -0.005870  0.000976)
 91:   1563.77   0.000992    5.01  0.000198  ( 0.002109  0.010153 -0.009509)
 92:   1767.40   0.008029   40.57  0.001418  ( 0.012113 -0.032159 -0.015385)
 93:   3089.31   0.003079   15.56  0.000311  (-0.005000 -0.016167  0.004962)
 94:   3096.24   0.004798   24.25  0.000484  (-0.018253  0.010207  0.006801)
 95:   3098.18   0.004399   22.23  0.000443  ( 0.017366 -0.002876 -0.011544)
 96:   3099.33   0.000458    2.32  0.000046  (-0.005769  0.002897 -0.002117)
 97:   3104.09   0.000506    2.56  0.000051  ( 0.006091  0.003546  0.001103)
 98:   3105.61   0.013023   65.81  0.001309  (-0.003139 -0.025796  0.025166)
 99:   3112.02   0.004331   21.89  0.000434  (-0.011784  0.012824  0.011447)
100:   3114.44   0.007814   39.49  0.000783  ( 0.024857  0.008748  0.009413)
101:   3121.51   0.014135   71.43  0.001413  ( 0.005352  0.031261  0.020181)
102:   3126.21   0.012296   62.14  0.001227  (-0.019468 -0.004024 -0.028848)
103:   3144.23   0.004746   23.98  0.000471  (-0.004935 -0.008165  0.019493)
104:   3153.02   0.002860   14.45  0.000283  (-0.001577  0.005934 -0.015663)
105:   3163.46   0.001208    6.11  0.000119  (-0.005292 -0.001482  0.009433)
106:   3167.51   0.006208   31.37  0.000612  (-0.023008  0.005450  0.007246)
107:   3173.73   0.001044    5.27  0.000103  ( 0.002998  0.006547  0.007125)
108:   3179.46   0.003441   17.39  0.000338  (-0.000425 -0.018034  0.003508)
109:   3180.49   0.010924   55.20  0.001072  (-0.023332 -0.018421 -0.013716)
110:   3183.02   0.000643    3.25  0.000063  (-0.000797  0.007886  0.000446)
111:   3185.05   0.000553    2.80  0.000054  ( 0.004692  0.001297  0.005524)
112:   3189.21   0.010528   53.21  0.001030  (-0.009773 -0.020975  0.022242)
113:   3210.52   0.002185   11.04  0.000212  (-0.006510  0.012974  0.001293)
114:   3228.75   0.002668   13.49  0.000258  (-0.008929  0.011203 -0.007258)
115:   3231.27   0.002998   15.15  0.000290  (-0.013397  0.006518  0.008221)
116:   3304.61   0.001231    6.22  0.000116  (-0.007169  0.002421 -0.007679)

--------------------------
THERMOCHEMISTRY AT 298.15K
--------------------------

Temperature         ...   298.15 K
Pressure            ...     1.00 atm
Total Mass          ...   204.36 AMU
Quasi RRHO          ...     True
Cut-Off Frequency   ...     1.00 cm^-1

Throughout the following assumptions are being made:
  (1) The electronic state is orbitally nondegenerate
  (2) There are no thermally accessible electronically excited states
  (3) Hindered rotations indicated by low frequency modes are not
      treated as such but are treated as vibrations and this may
      cause some error
  (4) All equations used are the standard statistical mechanics
      equations for an ideal gas
  (5) All vibrations are strictly harmonic

freq.      88.87  E(vib)   ...       0.47
freq.     126.30  E(vib)   ...       0.43
freq.     178.29  E(vib)   ...       0.37
freq.     200.71  E(vib)   ...       0.35
freq.     210.63  E(vib)   ...       0.34
freq.     224.31  E(vib)   ...       0.33
freq.     262.97  E(vib)   ...       0.29
freq.     266.02  E(vib)   ...       0.29
freq.     290.58  E(vib)   ...       0.27
freq.     308.15  E(vib)   ...       0.26
freq.     318.10  E(vib)   ...       0.25
freq.     344.56  E(vib)   ...       0.23
freq.     368.86  E(vib)   ...       0.21
freq.     398.46  E(vib)   ...       0.20
freq.     401.12  E(vib)   ...       0.19
freq.     424.32  E(vib)   ...       0.18
freq.     468.47  E(vib)   ...       0.16
freq.     473.15  E(vib)   ...       0.15
freq.     505.55  E(vib)   ...       0.14
freq.     527.53  E(vib)   ...       0.13
freq.     561.05  E(vib)   ...       0.11
freq.     579.25  E(vib)   ...       0.11
freq.     635.18  E(vib)   ...       0.09
freq.     650.21  E(vib)   ...       0.08
freq.     673.07  E(vib)   ...       0.08
freq.     731.84  E(vib)   ...       0.06
freq.     754.83  E(vib)   ...       0.06
freq.     812.73  E(vib)   ...       0.05
freq.     838.88  E(vib)   ...       0.04
freq.     863.68  E(vib)   ...       0.04
freq.     881.12  E(vib)   ...       0.04
freq.     893.71  E(vib)   ...       0.03
freq.     924.40  E(vib)   ...       0.03
freq.     933.69  E(vib)   ...       0.03
freq.     968.40  E(vib)   ...       0.03
freq.     976.71  E(vib)   ...       0.03
freq.     977.85  E(vib)   ...       0.03
freq.     982.31  E(vib)   ...       0.02
freq.     999.31  E(vib)   ...       0.02
freq.    1015.56  E(vib)   ...       0.02
freq.    1024.21  E(vib)   ...       0.02
freq.    1037.15  E(vib)   ...       0.02
freq.    1044.31  E(vib)   ...       0.02
freq.    1049.39  E(vib)   ...       0.02
freq.    1082.78  E(vib)   ...       0.02
freq.    1096.44  E(vib)   ...       0.02
freq.    1119.72  E(vib)   ...       0.01
freq.    1139.61  E(vib)   ...       0.01
freq.    1161.25  E(vib)   ...       0.01
freq.    1185.00  E(vib)   ...       0.01
freq.    1205.15  E(vib)   ...       0.01
freq.    1211.45  E(vib)   ...       0.01
freq.    1220.79  E(vib)   ...       0.01
freq.    1241.41  E(vib)   ...       0.01
freq.    1258.02  E(vib)   ...       0.01
freq.    1268.66  E(vib)   ...       0.01
freq.    1270.57  E(vib)   ...       0.01
freq.    1287.20  E(vib)   ...       0.01
freq.    1298.38  E(vib)   ...       0.01
freq.    1332.12  E(vib)   ...       0.01
freq.    1336.33  E(vib)   ...       0.01
freq.    1350.32  E(vib)   ...       0.01
freq.    1362.72  E(vib)   ...       0.01
freq.    1367.55  E(vib)   ...       0.01
freq.    1386.51  E(vib)   ...       0.00
freq.    1390.48  E(vib)   ...       0.00
freq.    1398.39  E(vib)   ...       0.00
freq.    1409.42  E(vib)   ...       0.00
freq.    1415.99  E(vib)   ...       0.00
freq.    1418.61  E(vib)   ...       0.00
freq.    1429.23  E(vib)   ...       0.00
freq.    1438.34  E(vib)   ...       0.00
freq.    1449.33  E(vib)   ...       0.00
freq.    1455.30  E(vib)   ...       0.00
freq.    1479.61  E(vib)   ...       0.00
freq.    1510.59  E(vib)   ...       0.00
freq.    1515.84  E(vib)   ...       0.00
freq.    1516.98  E(vib)   ...       0.00
freq.    1520.24  E(vib)   ...       0.00
freq.    1524.49  E(vib)   ...       0.00
freq.    1528.47  E(vib)   ...       0.00
freq.    1533.86  E(vib)   ...       0.00
freq.    1541.19  E(vib)   ...       0.00
freq.    1546.30  E(vib)   ...       0.00
freq.    1551.25  E(vib)   ...       0.00
freq.    1563.77  E(vib)   ...       0.00
freq.    1767.40  E(vib)   ...       0.00
freq.    3089.31  E(vib)   ...       0.00
freq.    3096.24  E(vib)   ...       0.00
freq.    3098.18  E(vib)   ...       0.00
freq.    3099.33  E(vib)   ...       0.00
freq.    3104.09  E(vib)   ...       0.00
freq.    3105.61  E(vib)   ...       0.00
freq.    3112.02  E(vib)   ...       0.00
freq.    3114.44  E(vib)   ...       0.00
freq.    3121.51  E(vib)   ...       0.00
freq.    3126.21  E(vib)   ...       0.00
freq.    3144.23  E(vib)   ...       0.00
freq.    3153.02  E(vib)   ...       0.00
freq.    3163.46  E(vib)   ...       0.00
freq.    3167.51  E(vib)   ...       0.00
freq.    3173.73  E(vib)   ...       0.00
freq.    3179.46  E(vib)   ...       0.00
freq.    3180.49  E(vib)   ...       0.00
freq.    3183.02  E(vib)   ...       0.00
freq.    3185.05  E(vib)   ...       0.00
freq.    3189.21  E(vib)   ...       0.00
freq.    3210.52  E(vib)   ...       0.00
freq.    3228.75  E(vib)   ...       0.00
freq.    3231.27  E(vib)   ...       0.00
freq.    3304.61  E(vib)   ...       0.00

------------
INNER ENERGY
------------

The inner energy is: U= E(el) + E(ZPE) + E(vib) + E(rot) + E(trans)
    E(el)   - is the total energy from the electronic structure calculation
              = E(kin-el) + E(nuc-el) + E(el-el) + E(nuc-nuc)
    E(ZPE)  - the the zero temperature vibrational energy from the frequency calculation
    E(vib)  - the the finite temperature correction to E(ZPE) due to population
              of excited vibrational states
    E(rot)  - is the rotational thermal energy
    E(trans)- is the translational thermal energy

Summary of contributions to the inner energy U:
Electronic energy                ...    -99.95309456 Eh
Zero point energy                ...      0.36916370 Eh     231.65 kcal/mol
Thermal vibrational correction   ...      0.01051842 Eh       6.60 kcal/mol
Thermal rotational correction    ...      0.00141627 Eh       0.89 kcal/mol
Thermal translational correction ...      0.00141627 Eh       0.89 kcal/mol
-----------------------------------------------------------------------
Total thermal energy                    -99.57057990 Eh

Summary of corrections to the electronic energy:
(perhaps to be used in another calculation)
Total thermal correction                  0.01335096 Eh       8.38 kcal/mol
Non-thermal (ZPE) correction              0.36916370 Eh     231.65 kcal/mol
-----------------------------------------------------------------------
Total correction                          0.38251466 Eh     240.03 kcal/mol

Rotational constants in cm-1:     0.030196     0.019749     0.018459

                             ****ORCA TERMINATED NORMALLY****
TOTAL RUN TIME: 0 days 0 hours 21 minutes 43 seconds 103 msec
