                         Program Version 6.0.1  -  RELEASE   -
|  1> ! wB97X-3c OPT FREQ TightSCF
|  2> %pal
|  3>   nprocs 40
|  4> end
|  5> * xyz 0 1
|  6> C     -2.204014     1.356662     0.645655
|  7> C     -2.104920    -0.071730     0.094575
|  8> C     -3.502776    -0.681882    -0.057737
|  9> C     -1.231068    -0.956809     1.003296
| 10> O      0.092018    -0.433492     1.113737
| 11> C      1.042749    -0.518871     0.090556
| 12> O      0.787342    -1.147620    -0.973893
| 13> C      2.370522     0.162693     0.263662
| 14> C      2.506065     1.322895    -0.726347
| 15> C      3.520060    -0.836757     0.101075
| 16> H     -2.650674     1.354790     1.663222
| 17> H     -2.835129     1.981659    -0.021624
| 18> H     -1.196644     1.821934     0.695783
| 19> H     -1.642686    -0.023653    -0.915375
| 20> H     -3.429967    -1.701885    -0.491940
| 21> H     -4.012572    -0.746705     0.927708
| 22> H     -4.120221    -0.060362    -0.740952
| 23> H     -1.190035    -1.996807     0.610671
| 24> H     -1.677233    -1.000144     2.020190
| 25> H      2.422211     0.580558     1.293290
| 26> H      3.465197     1.857732    -0.558491
| 27> H      1.675071     2.046469    -0.581458
| 28> H      2.481301     0.952751    -1.774098
| 29> H      3.532843    -1.261930    -0.925760
| 30> H      4.492116    -0.333397     0.290618
| 31> H      3.410444    -1.666100     0.832420
| 32> *
| 33>
| 34>                          ****END OF INPUT****
 Total Charge           Charge          ....    0
 Multiplicity           Mult            ....    1
 Number of Electrons    NEL             ....   60
Dispersion correction           -0.025364241
FINAL SINGLE POINT ENERGY       -87.369752528366
Dispersion correction             ... done (  0.1 sec)
Dispersion correction           -0.025985561
FINAL SINGLE POINT ENERGY       -87.388865338359
Dispersion correction             ... done (  0.1 sec)
Dispersion correction           -0.025993211
FINAL SINGLE POINT ENERGY       -87.390383912952
Dispersion correction             ... done (  0.1 sec)
FINAL SINGLE POINT ENERGY       -87.390639898781
FINAL SINGLE POINT ENERGY       -87.390530190021
FINAL SINGLE POINT ENERGY       -87.390739165245
FINAL SINGLE POINT ENERGY       -87.390753477420
FINAL SINGLE POINT ENERGY       -87.390784148424
FINAL SINGLE POINT ENERGY       -87.390830467734
FINAL SINGLE POINT ENERGY       -87.390884803096
FINAL SINGLE POINT ENERGY       -87.390950513575
FINAL SINGLE POINT ENERGY       -87.391060274563
FINAL SINGLE POINT ENERGY       -87.391094187436
FINAL SINGLE POINT ENERGY       -87.391120240131
FINAL SINGLE POINT ENERGY       -87.391133307457
Dispersion correction             ... done (  0.1 sec)
Dispersion correction           -0.026100776
FINAL SINGLE POINT ENERGY       -87.391137313145
Dispersion correction             ... done (  0.1 sec)
Dispersion correction           -0.026100802
FINAL SINGLE POINT ENERGY       -87.391138372240
Dispersion correction             ... done (  0.1 sec)
                    ***********************HURRAY********************

CARTESIAN COORDINATES (ANGSTROEM)
---------------------------------
  C     -2.140752    1.420936    0.266140
  C     -2.020997   -0.071729    0.015650
  C     -3.384984   -0.738807   -0.024584
  C     -1.172411   -0.747774    1.073152
  O      0.155734   -0.221897    1.123250
  C      1.040687   -0.713830    0.250348
  O      0.779025   -1.580245   -0.539858
  C      2.376804   -0.024439    0.373449
  C      2.274394    1.368345   -0.238240
  C      3.472722   -0.847025   -0.271745
  H     -2.646170    1.616279    1.213866
  H     -2.718762    1.900427   -0.523166
  H     -1.163866    1.899594    0.304714
  H     -1.530457   -0.233273   -0.946668
  H     -3.303354   -1.801871   -0.249658
  H     -3.900494   -0.634587    0.931985
  H     -4.014574   -0.283809   -0.787929
  H     -1.119313   -1.820263    0.897123
  H     -1.580506   -0.566993    2.066810
  H      2.573114    0.086668    1.441192
  H      3.226244    1.888359   -0.142666
  H      1.510657    1.964606    0.256849
  H      2.031829    1.305391   -1.299284
  H      3.284309   -0.973455   -1.336176
  H      4.434023   -0.351283   -0.146102
  H      3.537097   -1.839325    0.170331

 Multiplicity           Mult            ....    1
 Number of Electrons    NEL             ....   60
 Basis Dimension        Dim             ....  210

ORBITAL ENERGIES
----------------

  NO   OCC          E(Eh)            E(eV)
   0   2.0000      -1.238224       -33.6938
   1   2.0000      -1.141128       -31.0517
   2   2.0000      -0.964754       -26.2523
   3   2.0000      -0.946508       -25.7558
   4   2.0000      -0.850957       -23.1557
   5   2.0000      -0.826395       -22.4874
   6   2.0000      -0.824903       -22.4467
   7   2.0000      -0.757762       -20.6198
   8   2.0000      -0.713871       -19.4254
   9   2.0000      -0.664352       -18.0779
  10   2.0000      -0.636375       -17.3166
  11   2.0000      -0.609158       -16.5760
  12   2.0000      -0.595551       -16.2058
  13   2.0000      -0.580438       -15.7945
  14   2.0000      -0.568113       -15.4592
  15   2.0000      -0.543769       -14.7967
  16   2.0000      -0.535627       -14.5751
  17   2.0000      -0.517669       -14.0865
  18   2.0000      -0.507400       -13.8071
  19   2.0000      -0.501049       -13.6342
  20   2.0000      -0.498163       -13.5557
  21   2.0000      -0.480616       -13.0782
  22   2.0000      -0.467650       -12.7254
  23   2.0000      -0.461434       -12.5563
  24   2.0000      -0.454704       -12.3731
  25   2.0000      -0.448935       -12.2161
  26   2.0000      -0.441238       -12.0067
  27   2.0000      -0.435401       -11.8479
  28   2.0000      -0.404040       -10.9945
  29   2.0000      -0.382609       -10.4113
  30   0.0000       0.084729         2.3056
  31   0.0000       0.090774         2.4701
  32   0.0000       0.101711         2.7677
  33   0.0000       0.104143         2.8339
  34   0.0000       0.112709         3.0670

MULLIKEN ATOMIC CHARGES
-----------------------
   0 C :   -0.028726
   1 C :   -0.086338
   2 C :   -0.060215
   3 C :    0.127724
   4 O :   -0.284462
   5 C :    0.262087
   6 O :   -0.321987
   7 C :   -0.119284
   8 C :   -0.043704
   9 C :   -0.032408
  10 H :    0.025533
  11 H :    0.032803
  12 H :    0.016820
  13 H :    0.051430
  14 H :    0.034992
  15 H :    0.023845
  16 H :    0.032062
  17 H :    0.052116
  18 H :    0.042709
  19 H :    0.053261
  20 H :    0.032933
  21 H :    0.038980
  22 H :    0.036998
  23 H :    0.043661
  24 H :    0.029685
  25 H :    0.039482
Sum of atomic charges:   -0.0000000

LOEWDIN ATOMIC CHARGES
----------------------
   0 C :   -0.105578
   1 C :   -0.084600
   2 C :   -0.103713
   3 C :   -0.019947
   4 O :   -0.007620
   5 C :   -0.042367
   6 O :   -0.136731
   7 C :   -0.075443
   8 C :   -0.095290
   9 C :   -0.099587
  10 H :    0.042844
  11 H :    0.045885
  12 H :    0.041946
  13 H :    0.051178
  14 H :    0.047522
  15 H :    0.042952
  16 H :    0.047914
  17 H :    0.051433
  18 H :    0.053980
  19 H :    0.058784
  20 H :    0.048558
  21 H :    0.045403
  22 H :    0.047568
  23 H :    0.050291
  24 H :    0.045191
  25 H :    0.049425

  Mayer bond orders larger than 0.100000
B(  0-C ,  1-C ) :   0.9938 B(  0-C , 10-H ) :   0.9890 B(  0-C , 11-H ) :   0.9944
B(  0-C , 12-H ) :   0.9972 B(  1-C ,  2-C ) :   1.0064 B(  1-C ,  3-C ) :   0.9752
B(  1-C , 13-H ) :   0.9866 B(  2-C , 14-H ) :   0.9935 B(  2-C , 15-H ) :   0.9893
B(  2-C , 16-H ) :   0.9930 B(  3-C ,  4-O ) :   0.8816 B(  3-C , 17-H ) :   1.0006
B(  3-C , 18-H ) :   1.0063 B(  4-O ,  5-C ) :   1.1475 B(  5-C ,  6-O ) :   1.9475
B(  5-C ,  7-C ) :   1.0264 B(  7-C ,  8-C ) :   0.9779 B(  7-C ,  9-C ) :   1.0067
B(  7-C , 19-H ) :   0.9808 B(  8-C , 20-H ) :   0.9947 B(  8-C , 21-H ) :   0.9934
B(  8-C , 22-H ) :   0.9884 B(  9-C , 23-H ) :   0.9856 B(  9-C , 24-H ) :   0.9913
B(  9-C , 25-H ) :   0.9900

Dispersion correction           -0.026098268
FINAL SINGLE POINT ENERGY       -87.391138449305

DIPOLE MOMENT
-------------

Method             : SCF
Type of density    : Electron Density
Multiplicity       :   1
Irrep              :   0
Energy             :   -87.3650401812257229 Eh
Relativity type    :
Basis              : AO
                                X                 Y                 Z
Electronic contribution:      3.388368100      -4.718034370       1.818939719
Nuclear contribution   :     -3.513236435       5.269049548      -1.413734038
                        -----------------------------------------
Total Dipole Moment    :     -0.124868335       0.551015178       0.405205681
                        -----------------------------------------
Magnitude (a.u.)       :      0.695270790
Magnitude (Debye)      :      1.767237904

VIBRATIONAL FREQUENCIES
-----------------------

Scaling factor for frequencies =  1.000000000  (already applied!)

     0:       0.00 cm**-1
     1:       0.00 cm**-1
     2:       0.00 cm**-1
     3:       0.00 cm**-1
     4:       0.00 cm**-1
     5:       0.00 cm**-1
     6:      21.81 cm**-1
     7:      55.25 cm**-1
     8:      63.21 cm**-1
     9:      83.43 cm**-1
    10:     204.47 cm**-1
    11:     217.11 cm**-1
    12:     220.85 cm**-1
    13:     228.85 cm**-1
    14:     242.46 cm**-1
    15:     276.31 cm**-1
    16:     300.37 cm**-1
    17:     322.33 cm**-1
    18:     345.74 cm**-1
    19:     386.26 cm**-1
    20:     436.16 cm**-1
    21:     449.04 cm**-1
    22:     570.13 cm**-1
    23:     665.66 cm**-1
    24:     785.98 cm**-1
    25:     851.43 cm**-1
    26:     863.66 cm**-1
    27:     930.14 cm**-1
    28:     955.05 cm**-1
    29:     960.23 cm**-1
    30:     970.17 cm**-1
    31:     985.39 cm**-1
    32:    1001.90 cm**-1
    33:    1008.49 cm**-1
    34:    1072.40 cm**-1
    35:    1147.95 cm**-1
    36:    1181.26 cm**-1
    37:    1190.11 cm**-1
    38:    1221.12 cm**-1
    39:    1227.27 cm**-1
    40:    1234.21 cm**-1
    41:    1262.82 cm**-1
    42:    1349.34 cm**-1
    43:    1369.97 cm**-1
    44:    1372.05 cm**-1
    45:    1407.41 cm**-1
    46:    1424.44 cm**-1
    47:    1441.37 cm**-1
    48:    1443.77 cm**-1
    49:    1452.34 cm**-1
    50:    1456.88 cm**-1
    51:    1469.60 cm**-1
    52:    1512.57 cm**-1
    53:    1516.36 cm**-1
    54:    1516.94 cm**-1
    55:    1519.64 cm**-1
    56:    1525.87 cm**-1
    57:    1531.43 cm**-1
    58:    1534.95 cm**-1
    59:    1542.06 cm**-1
    60:    1545.58 cm**-1
    61:    1867.75 cm**-1
    62:    3094.88 cm**-1
    63:    3098.41 cm**-1
    64:    3105.54 cm**-1
    65:    3113.56 cm**-1
    66:    3118.80 cm**-1
    67:    3128.71 cm**-1
    68:    3132.53 cm**-1
    69:    3181.78 cm**-1
    70:    3185.29 cm**-1
    71:    3196.53 cm**-1
    72:    3197.30 cm**-1
    73:    3202.35 cm**-1
    74:    3202.54 cm**-1
    75:    3206.58 cm**-1
    76:    3210.34 cm**-1
    77:    3213.75 cm**-1

IR SPECTRUM
-----------

 Mode   freq       eps      Int      T**2         TX        TY        TZ
       cm**-1   L/(mol*cm) km/mol    a.u.
----------------------------------------------------------------------------
  6:     21.81   0.000003    0.02  0.000043  (-0.005020 -0.004106  0.000992)
  7:     55.25   0.000361    1.83  0.002042  (-0.008534  0.032392 -0.030326)
  8:     63.21   0.000067    0.34  0.000333  ( 0.014521 -0.010602  0.003064)
  9:     83.43   0.000213    1.08  0.000798  ( 0.021181 -0.018685 -0.000593)
 10:    204.47   0.000192    0.97  0.000293  ( 0.000413 -0.006805 -0.015711)
 11:    217.11   0.000021    0.11  0.000030  ( 0.001945  0.002162  0.004658)
 12:    220.85   0.000016    0.08  0.000023  ( 0.000394  0.000178  0.004792)
 13:    228.85   0.000064    0.32  0.000087  (-0.003235 -0.006790 -0.005559)
 14:    242.46   0.000069    0.35  0.000089  (-0.008533 -0.003389  0.002112)
 15:    276.31   0.000437    2.21  0.000494  ( 0.013989 -0.000445  0.017269)
 16:    300.37   0.000159    0.80  0.000165  ( 0.005825 -0.011405 -0.000828)
 17:    322.33   0.000861    4.35  0.000833  ( 0.017435 -0.022607  0.004268)
 18:    345.74   0.001725    8.72  0.001557  ( 0.035185 -0.000524 -0.017861)
 19:    386.26   0.000830    4.19  0.000670  ( 0.023784  0.000137 -0.010224)
 20:    436.16   0.000878    4.44  0.000628  ( 0.020153 -0.010708 -0.010371)
 21:    449.04   0.000288    1.46  0.000200  ( 0.003158 -0.006875  0.011965)
 22:    570.13   0.000309    1.56  0.000169  (-0.004876 -0.008122  0.008916)
 23:    665.66   0.000925    4.67  0.000434  (-0.018149 -0.005225 -0.008767)
 24:    785.98   0.001402    7.09  0.000557  (-0.009290  0.013730 -0.016790)
 25:    851.43   0.001882    9.51  0.000690  (-0.006229 -0.011716 -0.022666)
 26:    863.66   0.000953    4.82  0.000344  ( 0.004189  0.013795 -0.011683)
 27:    930.14   0.000511    2.58  0.000172  (-0.002099 -0.010528  0.007503)
 28:    955.05   0.000248    1.25  0.000081  ( 0.007214  0.005391  0.000040)
 29:    960.23   0.000447    2.26  0.000145  (-0.005517  0.010162 -0.003387)
 30:    970.17   0.001846    9.33  0.000594  ( 0.017704  0.011305  0.012357)
 31:    985.39   0.000441    2.23  0.000140  ( 0.003515  0.011285 -0.000306)
 32:   1001.90   0.000589    2.98  0.000184  ( 0.011839 -0.004939 -0.004355)
 33:   1008.49   0.000174    0.88  0.000054  ( 0.002836 -0.006616  0.001456)
 34:   1072.40   0.005131   25.93  0.001493  ( 0.037061  0.006040  0.009116)
 35:   1147.95   0.002206   11.15  0.000600  (-0.020105 -0.013600 -0.003238)
 36:   1181.26   0.003482   17.60  0.000920  (-0.029329  0.004516  0.006279)
 37:   1190.11   0.000160    0.81  0.000042  (-0.001833  0.000023 -0.006212)
 38:   1221.12   0.016332   82.54  0.004174  (-0.061776  0.001943  0.018810)
 39:   1227.27   0.008549   43.20  0.002174  (-0.042695  0.002991  0.018493)
 40:   1234.21   0.000845    4.27  0.000214  ( 0.013603 -0.004427 -0.003013)
 41:   1262.82   0.059266  299.51  0.014646  (-0.113484  0.011798  0.040345)
 42:   1349.34   0.007181   36.29  0.001661  (-0.036507  0.008533  0.015977)
 43:   1369.97   0.001586    8.02  0.000361  ( 0.018041 -0.000800 -0.005932)
 44:   1372.05   0.001080    5.46  0.000246  ( 0.014376  0.004203 -0.004607)
 45:   1407.41   0.000386    1.95  0.000086  (-0.007882  0.002965  0.003836)
 46:   1424.44   0.011192   56.56  0.002452  ( 0.044219 -0.013792 -0.017502)
 47:   1441.37   0.005399   27.29  0.001169  (-0.026770  0.003050  0.021049)
 48:   1443.77   0.003982   20.12  0.000861  (-0.017627 -0.023308  0.002600)
 49:   1452.34   0.004739   23.95  0.001018  (-0.028255  0.010543  0.010431)
 50:   1456.88   0.000606    3.06  0.000130  (-0.003386 -0.000294  0.010873)
 51:   1469.60   0.001713    8.66  0.000364  ( 0.015053  0.009825 -0.006380)
 52:   1512.57   0.000877    4.43  0.000181  ( 0.009505  0.005373 -0.007862)
 53:   1516.36   0.001005    5.08  0.000207  ( 0.004277 -0.013229  0.003682)
 54:   1516.94   0.000005    0.03  0.000001  (-0.000979  0.000311 -0.000005)
 55:   1519.64   0.000138    0.70  0.000028  (-0.001768  0.002081  0.004573)
 56:   1525.87   0.002420   12.23  0.000495  (-0.012411 -0.015557  0.009939)
 57:   1531.43   0.003924   19.83  0.000800  (-0.004001  0.005892  0.027365)
 58:   1534.95   0.000908    4.59  0.000185  ( 0.010325 -0.004534 -0.007573)
 59:   1542.06   0.003356   16.96  0.000679  (-0.002399 -0.009693  0.024072)
 60:   1545.58   0.009513   48.08  0.001921  ( 0.042097  0.011142  0.004945)
 61:   1867.75   0.047862  241.88  0.007997  (-0.001440 -0.068418 -0.057565)
 62:   3094.88   0.005819   29.41  0.000587  ( 0.016515  0.017694  0.000965)
 63:   3098.41   0.004925   24.89  0.000496  (-0.015673  0.015094  0.004753)
 64:   3105.54   0.004703   23.77  0.000473  (-0.000727  0.020719 -0.006543)
 65:   3113.56   0.004903   24.78  0.000491  ( 0.020595 -0.004201 -0.007042)
 66:   3118.80   0.000270    1.37  0.000027  (-0.002628  0.004269  0.001382)
 67:   3128.71   0.001625    8.21  0.000162  (-0.000514 -0.001858  0.012585)
 68:   3132.53   0.007141   36.09  0.000711  (-0.016860 -0.009486  0.018361)
 69:   3181.78   0.000912    4.61  0.000089  (-0.000612 -0.008997 -0.002854)
 70:   3185.29   0.006032   30.48  0.000591  ( 0.004575  0.001238 -0.023843)
 71:   3196.53   0.002710   13.69  0.000265  ( 0.005473 -0.012500  0.008849)
 72:   3197.30   0.002103   10.63  0.000205  ( 0.008404  0.005846  0.010021)
 73:   3202.35   0.002031   10.27  0.000198  ( 0.004310 -0.010633 -0.008145)
 74:   3202.54   0.003325   16.80  0.000324  ( 0.017686  0.001994  0.002681)
 75:   3206.58   0.002865   14.48  0.000279  (-0.010093 -0.013151 -0.001994)
 76:   3210.34   0.002151   10.87  0.000209  (-0.012128  0.004862  0.006190)
 77:   3213.75   0.002114   10.68  0.000205  ( 0.003514 -0.004229  0.013230)

--------------------------
THERMOCHEMISTRY AT 298.15K
--------------------------

Temperature         ...   298.15 K
Pressure            ...     1.00 atm
Total Mass          ...   144.21 AMU
Quasi RRHO          ...     True
Cut-Off Frequency   ...     1.00 cm^-1

Throughout the following assumptions are being made:
  (1) The electronic state is orbitally nondegenerate
  (2) There are no thermally accessible electronically excited states
  (3) Hindered rotations indicated by low frequency modes are not
      treated as such but are treated as vibrations and this may
      cause some error
  (4) All equations used are the standard statistical mechanics
      equations for an ideal gas
  (5) All vibrations are strictly harmonic

freq.      21.81  E(vib)   ...       0.56
freq.      55.25  E(vib)   ...       0.52
freq.      63.21  E(vib)   ...       0.51
freq.      83.43  E(vib)   ...       0.48
freq.     204.47  E(vib)   ...       0.35
freq.     217.11  E(vib)   ...       0.34
freq.     220.85  E(vib)   ...       0.33
freq.     228.85  E(vib)   ...       0.32
freq.     242.46  E(vib)   ...       0.31
freq.     276.31  E(vib)   ...       0.28
freq.     300.37  E(vib)   ...       0.26
freq.     322.33  E(vib)   ...       0.25
freq.     345.74  E(vib)   ...       0.23
freq.     386.26  E(vib)   ...       0.20
freq.     436.16  E(vib)   ...       0.17
freq.     449.04  E(vib)   ...       0.17
freq.     570.13  E(vib)   ...       0.11
freq.     665.66  E(vib)   ...       0.08
freq.     785.98  E(vib)   ...       0.05
freq.     851.43  E(vib)   ...       0.04
freq.     863.66  E(vib)   ...       0.04
freq.     930.14  E(vib)   ...       0.03
freq.     955.05  E(vib)   ...       0.03
freq.     960.23  E(vib)   ...       0.03
freq.     970.17  E(vib)   ...       0.03
freq.     985.39  E(vib)   ...       0.02
freq.    1001.90  E(vib)   ...       0.02
freq.    1008.49  E(vib)   ...       0.02
freq.    1072.40  E(vib)   ...       0.02
freq.    1147.95  E(vib)   ...       0.01
freq.    1181.26  E(vib)   ...       0.01
freq.    1190.11  E(vib)   ...       0.01
freq.    1221.12  E(vib)   ...       0.01
freq.    1227.27  E(vib)   ...       0.01
freq.    1234.21  E(vib)   ...       0.01
freq.    1262.82  E(vib)   ...       0.01
freq.    1349.34  E(vib)   ...       0.01
freq.    1369.97  E(vib)   ...       0.01
freq.    1372.05  E(vib)   ...       0.01
freq.    1407.41  E(vib)   ...       0.00
freq.    1424.44  E(vib)   ...       0.00
freq.    1441.37  E(vib)   ...       0.00
freq.    1443.77  E(vib)   ...       0.00
freq.    1452.34  E(vib)   ...       0.00
freq.    1456.88  E(vib)   ...       0.00
freq.    1469.60  E(vib)   ...       0.00
freq.    1512.57  E(vib)   ...       0.00
freq.    1516.36  E(vib)   ...       0.00
freq.    1516.94  E(vib)   ...       0.00
freq.    1519.64  E(vib)   ...       0.00
freq.    1525.87  E(vib)   ...       0.00
freq.    1531.43  E(vib)   ...       0.00
freq.    1534.95  E(vib)   ...       0.00
freq.    1542.06  E(vib)   ...       0.00
freq.    1545.58  E(vib)   ...       0.00
freq.    1867.75  E(vib)   ...       0.00
freq.    3094.88  E(vib)   ...       0.00
freq.    3098.41  E(vib)   ...       0.00
freq.    3105.54  E(vib)   ...       0.00
freq.    3113.56  E(vib)   ...       0.00
freq.    3118.80  E(vib)   ...       0.00
freq.    3128.71  E(vib)   ...       0.00
freq.    3132.53  E(vib)   ...       0.00
freq.    3181.78  E(vib)   ...       0.00
freq.    3185.29  E(vib)   ...       0.00
freq.    3196.53  E(vib)   ...       0.00
freq.    3197.30  E(vib)   ...       0.00
freq.    3202.35  E(vib)   ...       0.00
freq.    3202.54  E(vib)   ...       0.00
freq.    3206.58  E(vib)   ...       0.00
freq.    3210.34  E(vib)   ...       0.00
freq.    3213.75  E(vib)   ...       0.00

------------
INNER ENERGY
------------

The inner energy is: U= E(el) + E(ZPE) + E(vib) + E(rot) + E(trans)
    E(el)   - is the total energy from the electronic structure calculation
              = E(kin-el) + E(nuc-el) + E(el-el) + E(nuc-nuc)
    E(ZPE)  - the the zero temperature vibrational energy from the frequency calculation
    E(vib)  - the the finite temperature correction to E(ZPE) due to population
              of excited vibrational states
    E(rot)  - is the rotational thermal energy
    E(trans)- is the translational thermal energy

Summary of contributions to the inner energy U:
Electronic energy                ...    -87.39113845 Eh
Zero point energy                ...      0.23767721 Eh     149.14 kcal/mol
Thermal vibrational correction   ...      0.00947114 Eh       5.94 kcal/mol
Thermal rotational correction    ...      0.00141627 Eh       0.89 kcal/mol
Thermal translational correction ...      0.00141627 Eh       0.89 kcal/mol
-----------------------------------------------------------------------
Total thermal energy                    -87.14115756 Eh

Summary of corrections to the electronic energy:
(perhaps to be used in another calculation)
Total thermal correction                  0.01230368 Eh       7.72 kcal/mol
Non-thermal (ZPE) correction              0.23767721 Eh     149.14 kcal/mol
-----------------------------------------------------------------------
Total correction                          0.24998089 Eh     156.87 kcal/mol

--------
ENTHALPY
--------

The enthalpy is H = U + kB*T
                kB is Boltzmann's constant
Total thermal energy              ...    -87.14115756 Eh
Thermal Enthalpy correction       ...      0.00094421 Eh       0.59 kcal/mol
-----------------------------------------------------------------------
Total Enthalpy                    ...    -87.14021335 Eh

Note: Only C1 symmetry has been detected, increase convergence thresholds
      if your molecule has a higher symmetry. Symmetry factor of 1.0 is
      used for the rotational entropy correction.

Note: Rotational entropy computed according to Herzberg
Infrared and Raman Spectra, Chapter V,1, Van Nostrand Reinhold, 1945
Point Group:  C1, Symmetry Number:   1
Rotational constants in cm-1:     0.088763     0.022828     0.020354

Vibrational entropy computed according to the QRRHO of S. Grimme
Chem.Eur.J. 2012 18 9955 using a reference frequency of 100.0 cm-1

-------
ENTROPY
-------

The entropy contributions are T*S = T*(S(el)+S(vib)+S(rot)+S(trans))
     S(el)   - electronic entropy
     S(vib)  - vibrational entropy
     S(rot)  - rotational entropy
     S(trans)- translational entropy
The entropies will be listed as multiplied by the temperature to get
units of energy

                             ****ORCA TERMINATED NORMALLY****
TOTAL RUN TIME: 0 days 0 hours 17 minutes 32 seconds 48 msec
