                         Program Version 6.0.1  -  RELEASE   -
|  1> ! wB97X-3c OPT FREQ TightSCF
|  2> %pal
|  3>   nprocs 40
|  4> end
|  5> * xyz 0 1
|  6> C      1.362197     3.001435    -0.105392
|  7> C      1.860581     1.558004     0.083530
|  8> C      3.138702     1.355395    -0.755926
|  9> C      3.677001    -0.072456    -0.646266
| 10> C      2.607194    -1.100633    -1.038215
| 11> C      1.298393    -0.966399    -0.206967
| 12> C      0.778888     0.506451    -0.316235
| 13> C     -0.556930     0.700538     0.450850
| 14> C     -1.558081    -0.490468     0.320259
| 15> C     -1.198805    -1.371683    -0.899115
| 16> C      0.227130    -1.951736    -0.795182
| 17> C     -3.057191    -0.006517     0.337094
| 18> C     -3.348282     0.733964     1.659818
| 19> C     -4.047619    -1.193820     0.248619
| 20> O     -3.303833     0.895447    -0.717359
| 21> C      1.593901    -1.373122     1.267061
| 22> H      0.976185     3.153316    -1.136206
| 23> H      2.188160     3.722378     0.075046
| 24> H      0.559870     3.237691     0.624070
| 25> H      2.119596     1.444902     1.157500
| 26> H      3.929107     2.057092    -0.410172
| 27> H      2.928535     1.581905    -1.825241
| 28> H      4.545912    -0.180977    -1.330852
| 29> H      4.050230    -0.262425     0.381605
| 30> H      3.029957    -2.123193    -0.924600
| 31> H      2.381877    -0.959659    -2.119299
| 32> H      0.553770     0.691204    -1.392766
| 33> H     -1.030027     1.625396     0.058878
| 34> H     -0.345387     0.873780     1.528914
| 35> H     -1.434093    -1.139361     1.214451
| 36> H     -1.281610    -0.776862    -1.834052
| 37> H     -1.893929    -2.230684    -0.987861
| 38> H      0.183520    -2.885050    -0.190399
| 39> H      0.509368    -2.286165    -1.817894
| 40> H     -2.735483     1.654650     1.750771
| 41> H     -4.413351     1.048427     1.705101
| 42> H     -3.137359     0.079232     2.532875
| 43> H     -4.032665    -1.664716    -0.755578
| 44> H     -3.805651    -1.964125     1.012124
| 45> H     -5.089839    -0.846734     0.417169
| 46> H     -3.247441     0.398352    -1.573685
| 47> H      2.311969    -0.693604     1.762978
| 48> H      0.677393    -1.383752     1.886353
| 49> H      2.028138    -2.395419     1.304197
| 50> *
| 51>
| 52>                          ****END OF INPUT****
 Total Charge           Charge          ....    0
 Multiplicity           Mult            ....    1
 Number of Electrons    NEL             ....   94
Dispersion correction           -0.058685482
FINAL SINGLE POINT ENERGY      -118.460125567700
Dispersion correction             ... done (  0.1 sec)
Dispersion correction           -0.060176351
FINAL SINGLE POINT ENERGY      -118.474527428960
Dispersion correction             ... done (  0.1 sec)
Dispersion correction           -0.060370653
FINAL SINGLE POINT ENERGY      -118.475266487308
Dispersion correction             ... done (  0.1 sec)
FINAL SINGLE POINT ENERGY      -118.475442206899
FINAL SINGLE POINT ENERGY      -118.475475325720
Dispersion correction             ... done (  0.1 sec)
Dispersion correction           -0.060344962
FINAL SINGLE POINT ENERGY      -118.475484413228
Dispersion correction             ... done (  0.1 sec)
Dispersion correction           -0.060347470
FINAL SINGLE POINT ENERGY      -118.475487259243
Dispersion correction             ... done (  0.1 sec)
                    ***********************HURRAY********************

CARTESIAN COORDINATES (ANGSTROEM)
---------------------------------
  C      1.310634    2.951047   -0.104011
  C      1.815265    1.528526    0.078585
  C      3.102596    1.328060   -0.711090
  C      3.640815   -0.086273   -0.608268
  C      2.579248   -1.089832   -1.016199
  C      1.280494   -0.959636   -0.216443
  C      0.766739    0.486858   -0.322511
  C     -0.549903    0.678558    0.431117
  C     -1.526895   -0.498819    0.308946
  C     -1.179775   -1.309094   -0.930058
  C      0.221071   -1.904509   -0.828490
  C     -2.997245   -0.033800    0.363638
  C     -3.257141    0.767639    1.626039
  C     -3.958405   -1.213525    0.317347
  O     -3.288064    0.852191   -0.713272
  C      1.538466   -1.361875    1.236632
  H      0.983087    3.117133   -1.132320
  H      2.103206    3.668635    0.109593
  H      0.474232    3.181352    0.552596
  H      2.043744    1.391808    1.140864
  H      3.853120    2.046103   -0.373896
  H      2.905420    1.560995   -1.763213
  H      4.520151   -0.199583   -1.244740
  H      3.978491   -0.281713    0.411648
  H      2.958326   -2.111436   -0.929445
  H      2.347310   -0.935971   -2.074411
  H      0.567607    0.658181   -1.387974
  H     -1.041003    1.567814    0.039607
  H     -0.336852    0.876995    1.483768
  H     -1.400844   -1.162033    1.169819
  H     -1.241980   -0.666085   -1.812375
  H     -1.888007   -2.121526   -1.087165
  H      0.173978   -2.818094   -0.231565
  H      0.539938   -2.215677   -1.824883
  H     -2.644785    1.664938    1.656138
  H     -4.301265    1.073331    1.659010
  H     -3.041382    0.168836    2.509819
  H     -3.916999   -1.732667   -0.638860
  H     -3.730587   -1.935821    1.100692
  H     -4.978951   -0.861552    0.458451
  H     -3.244699    0.368399   -1.538508
  H      2.255866   -0.711068    1.731196
  H      0.627027   -1.350394    1.830682
  H      1.937948   -2.376419    1.273513

 Multiplicity           Mult            ....    1
 Number of Electrons    NEL             ....   94
 Basis Dimension        Dim             ....  348

ORBITAL ENERGIES
----------------

  NO   OCC          E(Eh)            E(eV)
   0   2.0000      -1.145844       -31.1800
   1   2.0000      -1.003607       -27.3095
   2   2.0000      -0.955094       -25.9894
   3   2.0000      -0.927845       -25.2480
   4   2.0000      -0.908306       -24.7163
   5   2.0000      -0.878010       -23.8919
   6   2.0000      -0.859127       -23.3780
   7   2.0000      -0.825324       -22.4582
   8   2.0000      -0.817256       -22.2387
   9   2.0000      -0.802849       -21.8466
  10   2.0000      -0.753273       -20.4976
  11   2.0000      -0.741824       -20.1860
  12   2.0000      -0.702826       -19.1249
  13   2.0000      -0.697696       -18.9853
  14   2.0000      -0.680025       -18.5044
  15   2.0000      -0.642442       -17.4817
  16   2.0000      -0.615180       -16.7399
  17   2.0000      -0.595526       -16.2051
  18   2.0000      -0.588912       -16.0251
  19   2.0000      -0.581614       -15.8265
  20   2.0000      -0.567586       -15.4448
  21   2.0000      -0.554205       -15.0807
  22   2.0000      -0.550283       -14.9740
  23   2.0000      -0.539371       -14.6770
  24   2.0000      -0.529879       -14.4187
  25   2.0000      -0.519611       -14.1393
  26   2.0000      -0.506216       -13.7748
  27   2.0000      -0.503525       -13.7016
  28   2.0000      -0.499858       -13.6018
  29   2.0000      -0.497839       -13.5469
  30   2.0000      -0.489003       -13.3064
  31   2.0000      -0.480502       -13.0751
  32   2.0000      -0.475417       -12.9368
  33   2.0000      -0.463332       -12.6079
  34   2.0000      -0.462206       -12.5773
  35   2.0000      -0.452738       -12.3196
  36   2.0000      -0.449469       -12.2307
  37   2.0000      -0.442561       -12.0427
  38   2.0000      -0.438871       -11.9423
  39   2.0000      -0.432005       -11.7555
  40   2.0000      -0.427763       -11.6400
  41   2.0000      -0.417936       -11.3726
  42   2.0000      -0.411271       -11.1913
  43   2.0000      -0.391807       -10.6616
  44   2.0000      -0.388974       -10.5845
  45   2.0000      -0.374239       -10.1836
  46   2.0000      -0.366572        -9.9749
  47   0.0000       0.082629         2.2484
  48   0.0000       0.086417         2.3515
  49   0.0000       0.094951         2.5838
  50   0.0000       0.097683         2.6581
  51   0.0000       0.109670         2.9843

MULLIKEN ATOMIC CHARGES
-----------------------
   0 C :   -0.035899
   1 C :   -0.075881
   2 C :   -0.032969
   3 C :   -0.035810
   4 C :   -0.012784
   5 C :   -0.209530
   6 C :   -0.029948
   7 C :   -0.013936
   8 C :   -0.045203
   9 C :   -0.034288
  10 C :    0.011095
  11 C :   -0.065576
  12 C :    0.004274
  13 C :   -0.008593
  14 O :   -0.288717
  15 C :    0.016702
  16 H :    0.026941
  17 H :    0.023769
  18 H :    0.023379
  19 H :    0.027345
  20 H :    0.028280
  21 H :    0.021201
  22 H :    0.031245
  23 H :    0.021770
  24 H :    0.028561
  25 H :    0.024585
  26 H :    0.019856
  27 H :    0.052425
  28 H :    0.031055
  29 H :    0.019653
  30 H :    0.016102
  31 H :    0.032947
  32 H :    0.021110
  33 H :    0.021917
  34 H :    0.029735
  35 H :    0.033261
  36 H :    0.030421
  37 H :    0.014377
  38 H :    0.030719
  39 H :    0.035368
  40 H :    0.147874
  41 H :    0.016187
  42 H :    0.018508
  43 H :    0.028469
Sum of atomic charges:   -0.0000000

LOEWDIN ATOMIC CHARGES
----------------------
   0 C :   -0.105440
   1 C :   -0.068417
   2 C :   -0.078763
   3 C :   -0.082938
   4 C :   -0.078329
   5 C :   -0.057771
   6 C :   -0.051634
   7 C :   -0.064487
   8 C :   -0.057723
   9 C :   -0.078598
  10 C :   -0.059821
  11 C :   -0.053590
  12 C :   -0.093656
  13 C :   -0.102170
  14 O :   -0.057472
  15 C :   -0.101266
  16 H :    0.043387
  17 H :    0.043796
  18 H :    0.042314
  19 H :    0.040374
  20 H :    0.045141
  21 H :    0.043442
  22 H :    0.046229
  23 H :    0.040215
  24 H :    0.045601
  25 H :    0.043661
  26 H :    0.044555
  27 H :    0.045392
  28 H :    0.040581
  29 H :    0.041824
  30 H :    0.037614
  31 H :    0.040957
  32 H :    0.044090
  33 H :    0.044246
  34 H :    0.047508
  35 H :    0.048523
  36 H :    0.047099
  37 H :    0.037529
  38 H :    0.048344
  39 H :    0.048796
  40 H :    0.021470
  41 H :    0.035761
  42 H :    0.039345
  43 H :    0.044279

  Mayer bond orders larger than 0.100000
B(  0-C ,  1-C ) :   1.0144 B(  0-C , 16-H ) :   0.9891 B(  0-C , 17-H ) :   0.9941
B(  0-C , 18-H ) :   0.9932 B(  1-C ,  2-C ) :   0.9850 B(  1-C ,  6-C ) :   0.9873
B(  1-C , 19-H ) :   0.9876 B(  2-C ,  3-C ) :   0.9934 B(  2-C , 20-H ) :   1.0012
B(  2-C , 21-H ) :   0.9918 B(  3-C ,  4-C ) :   0.9901 B(  3-C , 22-H ) :   0.9977
B(  3-C , 23-H ) :   0.9942 B(  4-C ,  5-C ) :   1.0049 B(  4-C , 24-H ) :   0.9962
B(  4-C , 25-H ) :   0.9943 B(  5-C ,  6-C ) :   0.9807 B(  5-C , 10-C ) :   0.9946
B(  5-C , 15-C ) :   0.9975 B(  6-C ,  7-C ) :   0.9985 B(  6-C , 26-H ) :   0.9887
B(  7-C ,  8-C ) :   0.9900 B(  7-C , 27-H ) :   0.9809 B(  7-C , 28-H ) :   0.9921
B(  8-C ,  9-C ) :   0.9677 B(  8-C , 11-C ) :   1.0058 B(  8-C , 29-H ) :   0.9834
B(  9-C , 10-C ) :   1.0075 B(  9-C , 30-H ) :   0.9907 B(  9-C , 31-H ) :   0.9983
B( 10-C , 32-H ) :   0.9966 B( 10-C , 33-H ) :   0.9991 B( 11-C , 12-C ) :   1.0160
B( 11-C , 13-C ) :   1.0166 B( 11-C , 14-O ) :   0.9896 B( 12-C , 34-H ) :   0.9882
B( 12-C , 35-H ) :   0.9892 B( 12-C , 36-H ) :   0.9861 B( 13-C , 37-H ) :   0.9879
B( 13-C , 38-H ) :   0.9826 B( 13-C , 39-H ) :   0.9898 B( 14-O , 40-H ) :   1.0580
B( 15-C , 41-H ) :   0.9924 B( 15-C , 42-H ) :   0.9927 B( 15-C , 43-H ) :   0.9887

Dispersion correction           -0.060349476
FINAL SINGLE POINT ENERGY      -118.475488160370

DIPOLE MOMENT
-------------

Method             : SCF
Type of density    : Electron Density
Multiplicity       :   1
Irrep              :   0
Energy             :  -118.4151386848105716 Eh
Relativity type    :
Basis              : AO
                                X                 Y                 Z
Electronic contribution:      0.703385535      -0.720142668      -2.879978606
Nuclear contribution   :     -0.519486706       0.118257988       2.865031872
                        -----------------------------------------
Total Dipole Moment    :      0.183898829      -0.601884680      -0.014946734
                        -----------------------------------------
Magnitude (a.u.)       :      0.629529469
Magnitude (Debye)      :      1.600136744

VIBRATIONAL FREQUENCIES
-----------------------

Scaling factor for frequencies =  1.000000000  (already applied!)

     0:       0.00 cm**-1
     1:       0.00 cm**-1
     2:       0.00 cm**-1
     3:       0.00 cm**-1
     4:       0.00 cm**-1
     5:       0.00 cm**-1
     6:      49.39 cm**-1
     7:      68.35 cm**-1
     8:     115.17 cm**-1
     9:     148.30 cm**-1
    10:     160.68 cm**-1
    11:     170.57 cm**-1
    12:     215.86 cm**-1
    13:     231.63 cm**-1
    14:     234.43 cm**-1
    15:     245.43 cm**-1
    16:     250.95 cm**-1
    17:     273.04 cm**-1
    18:     297.81 cm**-1
    19:     300.43 cm**-1
    20:     312.15 cm**-1
    21:     331.79 cm**-1
    22:     354.55 cm**-1
    23:     366.04 cm**-1
    24:     387.96 cm**-1
    25:     401.34 cm**-1
    26:     424.00 cm**-1
    27:     441.30 cm**-1
    28:     454.01 cm**-1
    29:     471.64 cm**-1
    30:     499.47 cm**-1
    31:     513.31 cm**-1
    32:     551.55 cm**-1
    33:     567.99 cm**-1
    34:     596.21 cm**-1
    35:     621.96 cm**-1
    36:     739.50 cm**-1
    37:     794.20 cm**-1
    38:     859.20 cm**-1
    39:     861.80 cm**-1
    40:     881.81 cm**-1
    41:     886.87 cm**-1
    42:     917.83 cm**-1
    43:     938.02 cm**-1
    44:     950.13 cm**-1
    45:     965.07 cm**-1
    46:     968.46 cm**-1
    47:     988.51 cm**-1
    48:     992.56 cm**-1
    49:    1002.32 cm**-1
    50:    1016.98 cm**-1
    51:    1025.48 cm**-1
    52:    1032.02 cm**-1
    53:    1062.56 cm**-1
    54:    1073.02 cm**-1
    55:    1094.79 cm**-1
    56:    1103.18 cm**-1
    57:    1116.50 cm**-1
    58:    1136.28 cm**-1
    59:    1153.91 cm**-1
    60:    1184.39 cm**-1
    61:    1190.22 cm**-1
    62:    1200.53 cm**-1
    63:    1204.18 cm**-1
    64:    1211.22 cm**-1
    65:    1232.27 cm**-1
    66:    1246.83 cm**-1
    67:    1273.98 cm**-1
    68:    1288.59 cm**-1
    69:    1293.57 cm**-1
    70:    1306.37 cm**-1
    71:    1317.51 cm**-1
    72:    1346.22 cm**-1
    73:    1351.69 cm**-1
    74:    1361.78 cm**-1
    75:    1372.32 cm**-1
    76:    1379.58 cm**-1
    77:    1387.36 cm**-1
    78:    1404.86 cm**-1
    79:    1411.40 cm**-1
    80:    1415.84 cm**-1
    81:    1419.27 cm**-1
    82:    1425.58 cm**-1
    83:    1437.22 cm**-1
    84:    1440.08 cm**-1
    85:    1443.15 cm**-1
    86:    1446.77 cm**-1
    87:    1452.73 cm**-1
    88:    1453.35 cm**-1
    89:    1458.69 cm**-1
    90:    1506.53 cm**-1
    91:    1508.48 cm**-1
    92:    1512.54 cm**-1
    93:    1518.73 cm**-1
    94:    1520.41 cm**-1
    95:    1524.99 cm**-1
    96:    1526.89 cm**-1
    97:    1530.62 cm**-1
    98:    1530.90 cm**-1
    99:    1533.14 cm**-1
   100:    1538.41 cm**-1
   101:    1541.88 cm**-1
   102:    1545.26 cm**-1
   103:    1547.44 cm**-1
   104:    3046.66 cm**-1
   105:    3071.62 cm**-1
   106:    3074.99 cm**-1
   107:    3080.59 cm**-1
   108:    3082.73 cm**-1
   109:    3090.26 cm**-1
   110:    3093.41 cm**-1
   111:    3095.55 cm**-1
   112:    3100.35 cm**-1
   113:    3101.33 cm**-1
   114:    3104.97 cm**-1
   115:    3107.21 cm**-1
   116:    3115.49 cm**-1
   117:    3129.02 cm**-1
   118:    3134.96 cm**-1
   119:    3142.91 cm**-1
   120:    3152.01 cm**-1
   121:    3162.44 cm**-1
   122:    3171.13 cm**-1
   123:    3175.61 cm**-1
   124:    3189.70 cm**-1
   125:    3199.14 cm**-1
   126:    3199.50 cm**-1
   127:    3200.78 cm**-1
   128:    3207.33 cm**-1
   129:    3210.15 cm**-1
   130:    3221.84 cm**-1
   131:    3956.20 cm**-1

IR SPECTRUM
-----------

 Mode   freq       eps      Int      T**2         TX        TY        TZ
       cm**-1   L/(mol*cm) km/mol    a.u.
----------------------------------------------------------------------------
  6:     49.39   0.000082    0.42  0.000520  ( 0.015863  0.001454  0.016305)
  7:     68.35   0.000066    0.33  0.000299  ( 0.002309  0.001507 -0.017079)
  8:    115.17   0.000165    0.83  0.000446  (-0.020095  0.000198  0.006528)
  9:    148.30   0.000042    0.21  0.000088  (-0.008184 -0.000023 -0.004604)
 10:    160.68   0.000102    0.51  0.000198  ( 0.013856  0.002294  0.000566)
 11:    170.57   0.000016    0.08  0.000029  (-0.000409  0.001277 -0.005256)
 12:    215.86   0.000406    2.05  0.000587  (-0.024163 -0.001507  0.001049)
 13:    231.63   0.000231    1.17  0.000311  ( 0.017089  0.000483  0.004335)
 14:    234.43   0.000502    2.54  0.000669  (-0.025289 -0.003933 -0.003686)
 15:    245.43   0.000502    2.54  0.000638  ( 0.024752  0.004116 -0.002919)
 16:    250.95   0.000249    1.26  0.000310  (-0.016790 -0.003995 -0.003454)
 17:    273.04   0.001412    7.14  0.001614  (-0.039817 -0.005267  0.000976)
 18:    297.81   0.013088   66.14  0.013715  ( 0.116073  0.015500 -0.001204)
 19:    300.43   0.012695   64.16  0.013187  (-0.113882 -0.014736 -0.000829)
 20:    312.15   0.000412    2.08  0.000412  (-0.019697 -0.003096  0.003776)
 21:    331.79   0.000155    0.78  0.000146  ( 0.008259  0.005113  0.007156)
 22:    354.55   0.000764    3.86  0.000672  (-0.025906 -0.000953 -0.000214)
 23:    366.04   0.000685    3.46  0.000584  (-0.021860 -0.000615 -0.010281)
 24:    387.96   0.000725    3.66  0.000583  (-0.022574 -0.002941 -0.008049)
 25:    401.34   0.000291    1.47  0.000226  ( 0.007366  0.007647 -0.010637)
 26:    424.00   0.000032    0.16  0.000023  (-0.002909 -0.000976 -0.003720)
 27:    441.30   0.000128    0.65  0.000090  ( 0.002577 -0.005729  0.007129)
 28:    454.01   0.000203    1.02  0.000139  ( 0.011233  0.001149  0.003449)
 29:    471.64   0.000696    3.52  0.000460  (-0.018479 -0.002528 -0.010610)
 30:    499.47   0.000731    3.69  0.000457  (-0.015578  0.004919 -0.013772)
 31:    513.31   0.000504    2.54  0.000306  ( 0.002539 -0.004160  0.016804)
 32:    551.55   0.000044    0.22  0.000025  (-0.002846 -0.000817 -0.004037)
 33:    567.99   0.000189    0.96  0.000104  ( 0.000833 -0.005135  0.008778)
 34:    596.21   0.001008    5.10  0.000528  (-0.017987 -0.008481  0.011501)
 35:    621.96   0.000110    0.56  0.000055  (-0.005852 -0.001677  0.004261)
 36:    739.50   0.000009    0.05  0.000004  ( 0.000542 -0.001512  0.001131)
 37:    794.20   0.000548    2.77  0.000215  ( 0.003777 -0.009787  0.010259)
 38:    859.20   0.000238    1.20  0.000086  ( 0.006934  0.003578  0.005061)
 39:    861.80   0.000263    1.33  0.000095  ( 0.004025  0.007216 -0.005207)
 40:    881.81   0.000166    0.84  0.000059  (-0.006728 -0.002957 -0.002145)
 41:    886.87   0.000576    2.91  0.000203  (-0.002593 -0.012483  0.006345)
 42:    917.83   0.000152    0.77  0.000052  (-0.000510  0.000957 -0.007118)
 43:    938.02   0.000220    1.11  0.000073  (-0.003800 -0.005561 -0.005275)
 44:    950.13   0.000722    3.65  0.000237  ( 0.011028 -0.004614  0.009702)
 45:    965.07   0.000131    0.66  0.000042  ( 0.000514 -0.005944 -0.002584)
 46:    968.46   0.000903    4.57  0.000291  ( 0.014111 -0.007393  0.006109)
 47:    988.51   0.001660    8.39  0.000524  ( 0.013251  0.006812 -0.017383)
 48:    992.56   0.000070    0.36  0.000022  ( 0.004098 -0.001484 -0.001762)
 49:   1002.32   0.005618   28.39  0.001749  ( 0.013590 -0.026804  0.029087)
 50:   1016.98   0.000545    2.75  0.000167  ( 0.011590  0.002982 -0.004890)
 51:   1025.48   0.000586    2.96  0.000178  ( 0.011005 -0.004455 -0.006103)
 52:   1032.02   0.000293    1.48  0.000089  (-0.005373  0.006722 -0.003829)
 53:   1062.56   0.000011    0.06  0.000003  ( 0.001419 -0.000964  0.000513)
 54:   1073.02   0.001130    5.71  0.000329  ( 0.010413  0.002625  0.014607)
 55:   1094.79   0.000427    2.16  0.000122  (-0.009020  0.000536 -0.006331)
 56:   1103.18   0.000228    1.15  0.000064  (-0.000629 -0.005821 -0.005497)
 57:   1116.50   0.000110    0.55  0.000031  ( 0.003918  0.002853 -0.002681)
 58:   1136.28   0.005681   28.71  0.001560  (-0.013739  0.020453 -0.030872)
 59:   1153.91   0.002568   12.98  0.000694  (-0.013014  0.014392 -0.017830)
 60:   1184.39   0.002616   13.22  0.000689  (-0.007722  0.019619 -0.015644)
 61:   1190.22   0.000240    1.21  0.000063  ( 0.002955  0.005353 -0.005051)
 62:   1200.53   0.000487    2.46  0.000127  ( 0.007216 -0.008142  0.002852)
 63:   1204.18   0.000558    2.82  0.000145  (-0.006797  0.003270 -0.009371)
 64:   1211.22   0.001141    5.77  0.000294  (-0.012093  0.003915 -0.011507)
 65:   1232.27   0.001107    5.60  0.000280  ( 0.016345  0.003256 -0.001624)
 66:   1246.83   0.003970   20.06  0.000994  (-0.010732 -0.016357  0.024715)
 67:   1273.98   0.000238    1.20  0.000058  ( 0.004151 -0.005624 -0.003068)
 68:   1288.59   0.006900   34.87  0.001671  (-0.037364  0.012697 -0.010665)
 69:   1293.57   0.001045    5.28  0.000252  (-0.005631  0.008858 -0.011909)
 70:   1306.37   0.001124    5.68  0.000268  ( 0.013721  0.008538  0.002701)
 71:   1317.51   0.001198    6.05  0.000284  (-0.007762  0.007625 -0.012857)
 72:   1346.22   0.003644   18.42  0.000845  (-0.003670  0.023549 -0.016637)
 73:   1351.69   0.001591    8.04  0.000367  ( 0.007259  0.015018 -0.009438)
 74:   1361.78   0.000129    0.65  0.000030  (-0.004031 -0.001452  0.003357)
 75:   1372.32   0.002174   10.98  0.000494  (-0.005788  0.017465 -0.012480)
 76:   1379.58   0.000801    4.05  0.000181  (-0.011900  0.006291 -0.000164)
 77:   1387.36   0.002414   12.20  0.000543  (-0.020694  0.009413 -0.005114)
 78:   1404.86   0.000052    0.26  0.000012  ( 0.003067  0.001167 -0.000913)
 79:   1411.40   0.000222    1.12  0.000049  (-0.000200 -0.003051 -0.006300)
 80:   1415.84   0.000386    1.95  0.000085  ( 0.000038 -0.001079 -0.009155)
 81:   1419.27   0.000261    1.32  0.000057  ( 0.006823  0.003067  0.001232)
 82:   1425.58   0.000448    2.26  0.000098  (-0.005341 -0.006255  0.005511)
 83:   1437.22   0.000492    2.48  0.000107  (-0.002832 -0.001531  0.009816)
 84:   1440.08   0.002539   12.83  0.000550  (-0.005599 -0.022224 -0.004990)
 85:   1443.15   0.001168    5.90  0.000253  ( 0.008568  0.013369  0.000675)
 86:   1446.77   0.004025   20.34  0.000868  ( 0.003219  0.028489 -0.006804)
 87:   1452.73   0.002605   13.16  0.000560  (-0.017010  0.016103 -0.003298)
 88:   1453.35   0.003417   17.27  0.000734  (-0.008213  0.002033  0.025733)
 89:   1458.69   0.001844    9.32  0.000395  (-0.011091  0.005460  0.015548)
 90:   1506.53   0.000245    1.24  0.000051  ( 0.005534  0.000311  0.004479)
 91:   1508.48   0.000061    0.31  0.000013  ( 0.002058 -0.001420  0.002506)
 92:   1512.54   0.001492    7.54  0.000308  (-0.006659  0.016215 -0.000699)
 93:   1518.73   0.001759    8.89  0.000361  ( 0.007582  0.007703  0.015640)
 94:   1520.41   0.000866    4.38  0.000178  ( 0.004700  0.011718 -0.004295)
 95:   1524.99   0.001713    8.66  0.000351  ( 0.001166  0.003760  0.018303)
 96:   1526.89   0.000817    4.13  0.000167  (-0.002523 -0.012272  0.003156)
 97:   1530.62   0.001006    5.08  0.000205  (-0.009795 -0.003943  0.009676)
 98:   1530.90   0.001897    9.59  0.000387  (-0.015501  0.006317  0.010320)
 99:   1533.14   0.001062    5.37  0.000216  ( 0.014349  0.002802  0.001543)
100:   1538.41   0.000404    2.04  0.000082  (-0.003591  0.002222 -0.008002)
101:   1541.88   0.001583    8.00  0.000320  (-0.009694 -0.004965 -0.014203)
102:   1545.26   0.001646    8.32  0.000332  ( 0.014618 -0.000845  0.010860)
103:   1547.44   0.001201    6.07  0.000242  ( 0.008535 -0.013008  0.000484)
104:   3046.66   0.001730    8.75  0.000177  ( 0.001097 -0.003776  0.012720)
105:   3071.62   0.003305   16.70  0.000336  ( 0.008637  0.014925 -0.006200)
106:   3074.99   0.004668   23.59  0.000474  ( 0.000538  0.011273  0.018612)
107:   3080.59   0.005899   29.81  0.000598  (-0.004996 -0.011912  0.020753)
108:   3082.73   0.001575    7.96  0.000159  (-0.004605 -0.002018 -0.011583)
109:   3090.26   0.007618   38.50  0.000769  ( 0.011226 -0.024743  0.005570)
110:   3093.41   0.008364   42.27  0.000844  ( 0.002740 -0.028627  0.004097)
111:   3095.55   0.007015   35.45  0.000707  (-0.005463 -0.008562 -0.024577)
112:   3100.35   0.003700   18.70  0.000372  ( 0.015200  0.010781  0.005017)
113:   3101.33   0.006536   33.03  0.000658  (-0.012785  0.009074  0.020294)
114:   3104.97   0.003775   19.07  0.000379  ( 0.012781  0.013316  0.006220)
115:   3107.21   0.007909   39.97  0.000794  (-0.013841  0.018187 -0.016490)
116:   3115.49   0.004964   25.08  0.000497  (-0.010620  0.004917  0.018980)
117:   3129.02   0.006940   35.07  0.000692  (-0.013017  0.022490 -0.004117)
118:   3134.96   0.008725   44.09  0.000869  (-0.026867 -0.008803 -0.008319)
119:   3142.91   0.003616   18.28  0.000359  (-0.004292 -0.001285 -0.018412)
120:   3152.01   0.008646   43.69  0.000856  (-0.002070 -0.003276  0.029000)
121:   3162.44   0.007694   38.88  0.000759  ( 0.014408  0.020948 -0.010620)
122:   3171.13   0.003044   15.38  0.000300  (-0.000732 -0.010992  0.013348)
123:   3175.61   0.005493   27.76  0.000540  (-0.013219 -0.009600 -0.016520)
124:   3189.70   0.004032   20.38  0.000394  ( 0.005774 -0.014109 -0.012732)
125:   3199.14   0.003615   18.27  0.000353  ( 0.014744 -0.000802 -0.011602)
126:   3199.50   0.003643   18.41  0.000355  (-0.000203 -0.005105 -0.018144)
127:   3200.78   0.000974    4.92  0.000095  ( 0.006826 -0.005732 -0.003933)
128:   3207.33   0.005860   29.62  0.000570  (-0.019854  0.011387 -0.006807)
129:   3210.15   0.004125   20.84  0.000401  (-0.017621 -0.009493 -0.000588)
130:   3221.84   0.002548   12.88  0.000247  (-0.010244 -0.011485  0.003154)
131:   3956.20   0.005514   27.87  0.000435  (-0.002024 -0.005365 -0.020052)

--------------------------
THERMOCHEMISTRY AT 298.15K
--------------------------

Temperature         ...   298.15 K
Pressure            ...     1.00 atm
Total Mass          ...   224.39 AMU
Quasi RRHO          ...     True
Cut-Off Frequency   ...     1.00 cm^-1

Throughout the following assumptions are being made:
  (1) The electronic state is orbitally nondegenerate
  (2) There are no thermally accessible electronically excited states
  (3) Hindered rotations indicated by low frequency modes are not
      treated as such but are treated as vibrations and this may
      cause some error
  (4) All equations used are the standard statistical mechanics
      equations for an ideal gas
  (5) All vibrations are strictly harmonic

freq.      49.39  E(vib)   ...       0.52
freq.      68.35  E(vib)   ...       0.50
freq.     115.17  E(vib)   ...       0.44
freq.     148.30  E(vib)   ...       0.41
freq.     160.68  E(vib)   ...       0.39
freq.     170.57  E(vib)   ...       0.38
freq.     215.86  E(vib)   ...       0.34
freq.     231.63  E(vib)   ...       0.32
freq.     234.43  E(vib)   ...       0.32
freq.     245.43  E(vib)   ...       0.31
freq.     250.95  E(vib)   ...       0.30
freq.     273.04  E(vib)   ...       0.29
freq.     297.81  E(vib)   ...       0.27
freq.     300.43  E(vib)   ...       0.26
freq.     312.15  E(vib)   ...       0.25
freq.     331.79  E(vib)   ...       0.24
freq.     354.55  E(vib)   ...       0.22
freq.     366.04  E(vib)   ...       0.22
freq.     387.96  E(vib)   ...       0.20
freq.     401.34  E(vib)   ...       0.19
freq.     424.00  E(vib)   ...       0.18
freq.     441.30  E(vib)   ...       0.17
freq.     454.01  E(vib)   ...       0.16
freq.     471.64  E(vib)   ...       0.15
freq.     499.47  E(vib)   ...       0.14
freq.     513.31  E(vib)   ...       0.13
freq.     551.55  E(vib)   ...       0.12
freq.     567.99  E(vib)   ...       0.11
freq.     596.21  E(vib)   ...       0.10
freq.     621.96  E(vib)   ...       0.09
freq.     739.50  E(vib)   ...       0.06
freq.     794.20  E(vib)   ...       0.05
freq.     859.20  E(vib)   ...       0.04
freq.     861.80  E(vib)   ...       0.04
freq.     881.81  E(vib)   ...       0.04
freq.     886.87  E(vib)   ...       0.04
freq.     917.83  E(vib)   ...       0.03
freq.     938.02  E(vib)   ...       0.03
freq.     950.13  E(vib)   ...       0.03
freq.     965.07  E(vib)   ...       0.03
freq.     968.46  E(vib)   ...       0.03
freq.     988.51  E(vib)   ...       0.02
freq.     992.56  E(vib)   ...       0.02
freq.    1002.32  E(vib)   ...       0.02
freq.    1016.98  E(vib)   ...       0.02
freq.    1025.48  E(vib)   ...       0.02
freq.    1032.02  E(vib)   ...       0.02
freq.    1062.56  E(vib)   ...       0.02
freq.    1073.02  E(vib)   ...       0.02
freq.    1094.79  E(vib)   ...       0.02
freq.    1103.18  E(vib)   ...       0.02
freq.    1116.50  E(vib)   ...       0.01
freq.    1136.28  E(vib)   ...       0.01
freq.    1153.91  E(vib)   ...       0.01
freq.    1184.39  E(vib)   ...       0.01
freq.    1190.22  E(vib)   ...       0.01
freq.    1200.53  E(vib)   ...       0.01
freq.    1204.18  E(vib)   ...       0.01
freq.    1211.22  E(vib)   ...       0.01
freq.    1232.27  E(vib)   ...       0.01
freq.    1246.83  E(vib)   ...       0.01
freq.    1273.98  E(vib)   ...       0.01
freq.    1288.59  E(vib)   ...       0.01
freq.    1293.57  E(vib)   ...       0.01
freq.    1306.37  E(vib)   ...       0.01
freq.    1317.51  E(vib)   ...       0.01
freq.    1346.22  E(vib)   ...       0.01
freq.    1351.69  E(vib)   ...       0.01
freq.    1361.78  E(vib)   ...       0.01
freq.    1372.32  E(vib)   ...       0.01
freq.    1379.58  E(vib)   ...       0.01
freq.    1387.36  E(vib)   ...       0.00
freq.    1404.86  E(vib)   ...       0.00
freq.    1411.40  E(vib)   ...       0.00
freq.    1415.84  E(vib)   ...       0.00
freq.    1419.27  E(vib)   ...       0.00
freq.    1425.58  E(vib)   ...       0.00
freq.    1437.22  E(vib)   ...       0.00
freq.    1440.08  E(vib)   ...       0.00
freq.    1443.15  E(vib)   ...       0.00
freq.    1446.77  E(vib)   ...       0.00
freq.    1452.73  E(vib)   ...       0.00
freq.    1453.35  E(vib)   ...       0.00
freq.    1458.69  E(vib)   ...       0.00
freq.    1506.53  E(vib)   ...       0.00
freq.    1508.48  E(vib)   ...       0.00
freq.    1512.54  E(vib)   ...       0.00
freq.    1518.73  E(vib)   ...       0.00
freq.    1520.41  E(vib)   ...       0.00
freq.    1524.99  E(vib)   ...       0.00
freq.    1526.89  E(vib)   ...       0.00
freq.    1530.62  E(vib)   ...       0.00
freq.    1530.90  E(vib)   ...       0.00
freq.    1533.14  E(vib)   ...       0.00
freq.    1538.41  E(vib)   ...       0.00
freq.    1541.88  E(vib)   ...       0.00
freq.    1545.26  E(vib)   ...       0.00
freq.    1547.44  E(vib)   ...       0.00
freq.    3046.66  E(vib)   ...       0.00
freq.    3071.62  E(vib)   ...       0.00
freq.    3074.99  E(vib)   ...       0.00
freq.    3080.59  E(vib)   ...       0.00
freq.    3082.73  E(vib)   ...       0.00
freq.    3090.26  E(vib)   ...       0.00
freq.    3093.41  E(vib)   ...       0.00
freq.    3095.55  E(vib)   ...       0.00
freq.    3100.35  E(vib)   ...       0.00
freq.    3101.33  E(vib)   ...       0.00
freq.    3104.97  E(vib)   ...       0.00
freq.    3107.21  E(vib)   ...       0.00
freq.    3115.49  E(vib)   ...       0.00
freq.    3129.02  E(vib)   ...       0.00
freq.    3134.96  E(vib)   ...       0.00
freq.    3142.91  E(vib)   ...       0.00
freq.    3152.01  E(vib)   ...       0.00
freq.    3162.44  E(vib)   ...       0.00
freq.    3171.13  E(vib)   ...       0.00
freq.    3175.61  E(vib)   ...       0.00
freq.    3189.70  E(vib)   ...       0.00
freq.    3199.14  E(vib)   ...       0.00
freq.    3199.50  E(vib)   ...       0.00
freq.    3200.78  E(vib)   ...       0.00
freq.    3207.33  E(vib)   ...       0.00
freq.    3210.15  E(vib)   ...       0.00
freq.    3221.84  E(vib)   ...       0.00
freq.    3956.20  E(vib)   ...       0.00

------------
INNER ENERGY
------------

The inner energy is: U= E(el) + E(ZPE) + E(vib) + E(rot) + E(trans)
    E(el)   - is the total energy from the electronic structure calculation
              = E(kin-el) + E(nuc-el) + E(el-el) + E(nuc-nuc)
    E(ZPE)  - the the zero temperature vibrational energy from the frequency calculation
    E(vib)  - the the finite temperature correction to E(ZPE) due to population
              of excited vibrational states
    E(rot)  - is the rotational thermal energy
    E(trans)- is the translational thermal energy

Summary of contributions to the inner energy U:
Electronic energy                ...   -118.47548816 Eh

Rotational constants in cm-1:     0.031411     0.011412     0.009674

                             ****ORCA TERMINATED NORMALLY****
TOTAL RUN TIME: 0 days 0 hours 24 minutes 25 seconds 695 msec
